 DBCSR| CPU Multiplication driver                                           XSMM
 DBCSR| Multrec recursion limit                                              512
 DBCSR| Multiplication stack size                                           1000
 DBCSR| Maximum elements for images                                    UNLIMITED
 DBCSR| Multiplicative factor virtual images                                   1
 DBCSR| Use multiplication densification                                       T
 DBCSR| Multiplication size stacks                                             3
 DBCSR| Use memory pool for CPU allocation                                     F
 DBCSR| Number of 3D layers                                               SINGLE
 DBCSR| Use MPI memory allocation                                              F
 DBCSR| Use RMA algorithm                                                      F
 DBCSR| Use Communication thread                                               T
 DBCSR| Communication thread load                                             87
 DBCSR| MPI: My node id                                                        0
 DBCSR| MPI: Number of nodes                                                 128
 DBCSR| OMP: Current number of threads                                         1
 DBCSR| OMP: Max number of threads                                             1
 DBCSR| Split modifier for TAS multiplication algorithm                  1.0E+00


  **** **** ******  **  PROGRAM STARTED AT               2023-01-21 20:47:38.910
 ***** ** ***  *** **   PROGRAM STARTED ON                             nid001091
 **    ****   ******    PROGRAM STARTED BY                                cahart
 ***** **    ** ** **   PROGRAM PROCESS ID                                207013
  **** **  *******  **  PROGRAM STARTED IN /mnt/lustre/a2fs-work2/work/e05/e05/c
                                           ahart/postdoc/masters/yike/Pt3Ni/chri
                                           s_struct/supercell_2x2x2/archer2/opti
                                           mise/kpoints/fm_scf-1e-6/search/4

 CP2K| version string:                                       CP2K version 2022.1
 CP2K| source code revision number:                                  git:2caeb6f
 CP2K| cp2kflags: omp libint fftw3 libxc elpa parallel mpi3 scalapack xsmm plume
 CP2K|            d2 mkl
 CP2K| is freely available from                            https://www.cp2k.org/
 CP2K| Program compiled at                          Mon 16 Jan 11:08:26 GMT 2023
 CP2K| Program compiled on                                                  ln01
 CP2K| Program compiled for                                              ARCHER2
 CP2K| Data directory path      /work/y07/shared/apps/core/cp2k/cp2k-2022.1/data
 CP2K| Input file name                                                  cp2k.inp

 GLOBAL| Force Environment number                                              1
 GLOBAL| Basis set file name                                        BASIS_MOLOPT
 GLOBAL| Potential file name                                      GTH_POTENTIALS
 GLOBAL| MM Potential file name                                     MM_POTENTIAL
 GLOBAL| Coordinate file name                                          input.xyz
 GLOBAL| Method name                                                        CP2K
 GLOBAL| Project name                                                      Pt3Ni
 GLOBAL| Run type                                                         ENERGY
 GLOBAL| FFT library                                                       FFTW3
 GLOBAL| Diagonalization library                                            ELPA
 GLOBAL| Minimum number of eigenvectors for ELPA usage                        16
 GLOBAL| Orthonormality check for eigenvectors                          DISABLED
 GLOBAL| Matrix multiplication library                                 ScaLAPACK
 GLOBAL| All-to-all communication in single precision                          F
 GLOBAL| FFTs using library dependent lengths                                  F
 GLOBAL| Grid backend                                                       AUTO
 GLOBAL| Global print level                                               MEDIUM
 GLOBAL| MPI I/O enabled                                                       T
 GLOBAL| Total number of message passing processes                           128
 GLOBAL| Number of threads for this process                                    1
 GLOBAL| This output is from process                                           0
 GLOBAL| Stack size for threads created by OpenMP (OMP_STACKSIZE)        default
 GLOBAL| CPU model name                          AMD EPYC 7742 64-Core Processor
 GLOBAL| CPUID                                                              1002

 MEMORY| system memory details [Kb]
 MEMORY|                        rank 0           min           max       average
 MEMORY| MemTotal            263528088     263528088     263528088     263528088
 MEMORY| MemFree             239018456     239018456     239018456     239018456
 MEMORY| Buffers                 25624         25624         25624         25624
 MEMORY| Cached                 768116        768116        768116        768116
 MEMORY| Slab                  1654368       1654368       1654368       1654368
 MEMORY| SReclaimable           107952        107952        107952        107952
 MEMORY| MemLikelyFree       239920148     239920148     239920148     239920148


 *** Fundamental physical constants (SI units) ***

 *** Literature: B. J. Mohr and B. N. Taylor,
 ***             CODATA recommended values of the fundamental physical
 ***             constants: 2006, Web Version 5.1
 ***             http://physics.nist.gov/constants

 Speed of light in vacuum [m/s]                             2.99792458000000E+08
 Magnetic constant or permeability of vacuum [N/A**2]       1.25663706143592E-06
 Electric constant or permittivity of vacuum [F/m]          8.85418781762039E-12
 Planck constant (h) [J*s]                                  6.62606896000000E-34
 Planck constant (h-bar) [J*s]                              1.05457162825177E-34
 Elementary charge [C]                                      1.60217648700000E-19
 Electron mass [kg]                                         9.10938215000000E-31
 Electron g factor [ ]                                     -2.00231930436220E+00
 Proton mass [kg]                                           1.67262163700000E-27
 Fine-structure constant                                    7.29735253760000E-03
 Rydberg constant [1/m]                                     1.09737315685270E+07
 Avogadro constant [1/mol]                                  6.02214179000000E+23
 Boltzmann constant [J/K]                                   1.38065040000000E-23
 Atomic mass unit [kg]                                      1.66053878200000E-27
 Bohr radius [m]                                            5.29177208590000E-11

 *** Conversion factors ***

 [u] -> [a.u.]                                              1.82288848426455E+03
 [Angstrom] -> [Bohr] = [a.u.]                              1.88972613288564E+00
 [a.u.] = [Bohr] -> [Angstrom]                              5.29177208590000E-01
 [a.u.] -> [s]                                              2.41888432650478E-17
 [a.u.] -> [fs]                                             2.41888432650478E-02
 [a.u.] -> [J]                                              4.35974393937059E-18
 [a.u.] -> [N]                                              8.23872205491840E-08
 [a.u.] -> [K]                                              3.15774647902944E+05
 [a.u.] -> [kJ/mol]                                         2.62549961709828E+03
 [a.u.] -> [kcal/mol]                                       6.27509468713739E+02
 [a.u.] -> [Pa]                                             2.94210107994716E+13
 [a.u.] -> [bar]                                            2.94210107994716E+08
 [a.u.] -> [atm]                                            2.90362800883016E+08
 [a.u.] -> [eV]                                             2.72113838565563E+01
 [a.u.] -> [Hz]                                             6.57968392072181E+15
 [a.u.] -> [1/cm] (wave numbers)                            2.19474631370540E+05
 [a.u./Bohr**2] -> [1/cm]                                   5.14048714338585E+03
 

 CELL_TOP| Volume [angstrom^3]:                                       456.533000
 CELL_TOP| Vector a [angstrom     7.700     0.000     0.000   |a| =     7.700000
 CELL_TOP| Vector b [angstrom     0.000     7.700     0.000   |b| =     7.700000
 CELL_TOP| Vector c [angstrom     0.000     0.000     7.700   |c| =     7.700000
 CELL_TOP| Angle (b,c), alpha [degree]:                                90.000000
 CELL_TOP| Angle (a,c), beta  [degree]:                                90.000000
 CELL_TOP| Angle (a,b), gamma [degree]:                                90.000000
 CELL_TOP| Numerically orthorhombic:                                         YES

 GENERATE|  Preliminary Number of Bonds generated:                             0
 GENERATE|  Achieved consistency in connectivity generation.

 CELL| Volume [angstrom^3]:                                           456.533000
 CELL| Vector a [angstrom]:       7.700     0.000     0.000   |a| =     7.700000
 CELL| Vector b [angstrom]:       0.000     7.700     0.000   |b| =     7.700000
 CELL| Vector c [angstrom]:       0.000     0.000     7.700   |c| =     7.700000
 CELL| Angle (b,c), alpha [degree]:                                    90.000000
 CELL| Angle (a,c), beta  [degree]:                                    90.000000
 CELL| Angle (a,b), gamma [degree]:                                    90.000000
 CELL| Numerically orthorhombic:                                             YES

 CELL_REF| Volume [angstrom^3]:                                       456.533000
 CELL_REF| Vector a [angstrom     7.700     0.000     0.000   |a| =     7.700000
 CELL_REF| Vector b [angstrom     0.000     7.700     0.000   |b| =     7.700000
 CELL_REF| Vector c [angstrom     0.000     0.000     7.700   |c| =     7.700000
 CELL_REF| Angle (b,c), alpha [degree]:                                90.000000
 CELL_REF| Angle (a,c), beta  [degree]:                                90.000000
 CELL_REF| Angle (a,b), gamma [degree]:                                90.000000
 CELL_REF| Numerically orthorhombic:                                         YES

 *** WARNING in cryssym.F:165 :: Symmetry library SPGLIB not available ***


 *******************************************************************************
                                    Kpoints
 *******************************************************************************
 BRILLOUIN| K-point scheme                                        Monkhorst-Pack
 BRILLOUIN| K-Point grid                                             4    4    4
 BRILLOUIN| Accuracy in Symmetry determination                      0.100000E-05
 BRILLOUIN| K-Point point group symmetrization                               OFF
 BRILLOUIN| Wavefunction type                                            COMPLEX
 BRILLOUIN| List of Kpoints [2 Pi/Bohr]                                       32
 BRILLOUIN| Number           Weight            X              Y              Z
 BRILLOUIN|     1           0.03125       -0.37500       -0.37500       -0.37500
 BRILLOUIN|     2           0.03125       -0.37500       -0.37500       -0.12500
 BRILLOUIN|     3           0.03125       -0.37500       -0.37500        0.12500
 BRILLOUIN|     4           0.03125       -0.37500       -0.37500        0.37500
 BRILLOUIN|     5           0.03125       -0.37500       -0.12500       -0.37500
 BRILLOUIN|     6           0.03125       -0.37500       -0.12500       -0.12500
 BRILLOUIN|     7           0.03125       -0.37500       -0.12500        0.12500
 BRILLOUIN|     8           0.03125       -0.37500       -0.12500        0.37500
 BRILLOUIN|     9           0.03125       -0.37500        0.12500       -0.37500
 BRILLOUIN|    10           0.03125       -0.37500        0.12500       -0.12500
 BRILLOUIN|    11           0.03125       -0.37500        0.12500        0.12500
 BRILLOUIN|    12           0.03125       -0.37500        0.12500        0.37500
 BRILLOUIN|    13           0.03125       -0.37500        0.37500       -0.37500
 BRILLOUIN|    14           0.03125       -0.37500        0.37500       -0.12500
 BRILLOUIN|    15           0.03125       -0.37500        0.37500        0.12500
 BRILLOUIN|    16           0.03125       -0.37500        0.37500        0.37500
 BRILLOUIN|    17           0.03125       -0.12500       -0.37500       -0.37500
 BRILLOUIN|    18           0.03125       -0.12500       -0.37500       -0.12500
 BRILLOUIN|    19           0.03125       -0.12500       -0.37500        0.12500
 BRILLOUIN|    20           0.03125       -0.12500       -0.37500        0.37500
 BRILLOUIN|    21           0.03125       -0.12500       -0.12500       -0.37500
 BRILLOUIN|    22           0.03125       -0.12500       -0.12500       -0.12500
 BRILLOUIN|    23           0.03125       -0.12500       -0.12500        0.12500
 BRILLOUIN|    24           0.03125       -0.12500       -0.12500        0.37500
 BRILLOUIN|    25           0.03125       -0.12500        0.12500       -0.37500
 BRILLOUIN|    26           0.03125       -0.12500        0.12500       -0.12500
 BRILLOUIN|    27           0.03125       -0.12500        0.12500        0.12500
 BRILLOUIN|    28           0.03125       -0.12500        0.12500        0.37500
 BRILLOUIN|    29           0.03125       -0.12500        0.37500       -0.37500
 BRILLOUIN|    30           0.03125       -0.12500        0.37500       -0.12500
 BRILLOUIN|    31           0.03125       -0.12500        0.37500        0.12500
 BRILLOUIN|    32           0.03125       -0.12500        0.37500        0.37500
 *******************************************************************************

 *******************************************************************************
 *******************************************************************************
 **                                                                           **
 **     #####                         ##              ##                      **
 **    ##   ##            ##          ##              ##                      **
 **   ##     ##                       ##            ######                    **
 **   ##     ##  ##   ##  ##   #####  ##  ##   ####   ##    #####    #####    **
 **   ##     ##  ##   ##  ##  ##      ## ##   ##      ##   ##   ##  ##   ##   **
 **   ##  ## ##  ##   ##  ##  ##      ####     ###    ##   ######   ######    **
 **    ##  ###   ##   ##  ##  ##      ## ##      ##   ##   ##       ##        **
 **     #######   #####   ##   #####  ##  ##  ####    ##    #####   ##        **
 **           ##                                                    ##        **
 **                                                                           **
 **                                                ... make the atoms dance   **
 **                                                                           **
 **            Copyright (C) by CP2K developers group (2000-2022)             **
 **                      J. Chem. Phys. 152, 194103 (2020)                    **
 **                                                                           **
 *******************************************************************************

 *** WARNING in qs_environment.F:1478 :: Kpoints: Different number of MOs   ***
 *** requested. The number of beta MOs will be set to the number alpha MOs. ***


 DFT| Spin unrestricted (spin-polarized) Kohn-Sham calculation               UKS
 DFT| Multiplicity                                                            17
 DFT| Number of spin states                                                    2
 DFT| Charge                                                                   0
 DFT| Self-interaction correction (SIC)                                       NO
 DFT| Cutoffs: density                                              1.000000E-10
 DFT|          gradient                                             1.000000E-10
 DFT|          tau                                                  1.000000E-10
 DFT|          cutoff_smoothing_range                               0.000000E+00
 DFT| XC density smoothing                                                  NONE
 DFT| XC derivatives                                                          PW

 FUNCTIONAL| PBE:
 FUNCTIONAL| J.P.Perdew, K.Burke, M.Ernzerhof, Phys. Rev. Letter, vol. 77, n 18,
 FUNCTIONAL|  pp. 3865-3868, (1996){spin polarized}                             


 QS| Method:                                                                 GPW
 QS| Density plane wave grid type                        NON-SPHERICAL FULLSPACE
 QS| Number of grid levels:                                                    4
 QS| Density cutoff [a.u.]:                                                250.0
 QS| Multi grid cutoff [a.u.]: 1) grid level                               250.0
 QS|                           2) grid level                                83.3
 QS|                           3) grid level                                27.8
 QS|                           4) grid level                                 9.3
 QS| Grid level progression factor:                                          3.0
 QS| Relative density cutoff [a.u.]:                                        30.0
 QS| Interaction thresholds: eps_pgf_orb:                                1.0E-07
 QS|                         eps_filter_matrix:                          0.0E+00
 QS|                         eps_core_charge:                            1.0E-16
 QS|                         eps_rho_gspace:                             1.0E-14
 QS|                         eps_rho_rspace:                             1.0E-14
 QS|                         eps_gvg_rspace:                             1.0E-07
 QS|                         eps_ppl:                                    1.0E-02
 QS|                         eps_ppnl:                                   1.0E-09


 ATOMIC KIND INFORMATION

  1. Atomic kind: Ni                                    Number of atoms:       8

     Orbital Basis Set                                        DZVP-MOLOPT-SR-GTH

       Number of orbital shell sets:                                           1
       Number of orbital shells:                                               8
       Number of primitive Cartesian functions:                                6
       Number of Cartesian basis functions:                                   31
       Number of spherical basis functions:                                   26
       Norm type:                                                              2

       Normalised Cartesian orbitals:

                        Set   Shell   Orbital            Exponent    Coefficient

                          1       1    2s               10.077428      -0.684558
                                                         5.847736      -0.844524
                                                         2.494033       1.088856
                                                         0.988355       0.395503
                                                         0.344978       0.010224
                                                         0.099466      -0.003250

                          1       2    3s               10.077428       0.096747
                                                         5.847736       0.162504
                                                         2.494033      -0.297192
                                                         0.988355      -0.319752
                                                         0.344978       0.088318
                                                         0.099466       0.118587

                          1       3    4s               10.077428       0.036437
                                                         5.847736      -0.381480
                                                         2.494033       0.003759
                                                         0.988355      -1.048256
                                                         0.344978       0.855825
                                                         0.099466      -0.176350

                          1       4    3px              10.077428      -3.133913
                                                         5.847736       3.027656
                                                         2.494033       2.353227
                                                         0.988355       0.554184
                                                         0.344978       0.019462
                                                         0.099466      -0.000291
                          1       4    3py              10.077428      -3.133913
                                                         5.847736       3.027656
                                                         2.494033       2.353227
                                                         0.988355       0.554184
                                                         0.344978       0.019462
                                                         0.099466      -0.000291
                          1       4    3pz              10.077428      -3.133913
                                                         5.847736       3.027656
                                                         2.494033       2.353227
                                                         0.988355       0.554184
                                                         0.344978       0.019462
                                                         0.099466      -0.000291

                          1       5    4px              10.077428      -0.112729
                                                         5.847736      -0.114008
                                                         2.494033      -0.347303
                                                         0.988355      -0.110323
                                                         0.344978       0.154096
                                                         0.099466       0.058386
                          1       5    4py              10.077428      -0.112729
                                                         5.847736      -0.114008
                                                         2.494033      -0.347303
                                                         0.988355      -0.110323
                                                         0.344978       0.154096
                                                         0.099466       0.058386
                          1       5    4pz              10.077428      -0.112729
                                                         5.847736      -0.114008
                                                         2.494033      -0.347303
                                                         0.988355      -0.110323
                                                         0.344978       0.154096
                                                         0.099466       0.058386

                          1       6    4dx2             10.077428       8.232726
                                                         5.847736       9.105758
                                                         2.494033       2.849835
                                                         0.988355       0.554319
                                                         0.344978       0.067245
                                                         0.099466       0.001940
                          1       6    4dxy             10.077428      14.259500
                                                         5.847736      15.771636
                                                         2.494033       4.936060
                                                         0.988355       0.960109
                                                         0.344978       0.116472
                                                         0.099466       0.003360
                          1       6    4dxz             10.077428      14.259500
                                                         5.847736      15.771636
                                                         2.494033       4.936060
                                                         0.988355       0.960109
                                                         0.344978       0.116472
                                                         0.099466       0.003360
                          1       6    4dy2             10.077428       8.232726
                                                         5.847736       9.105758
                                                         2.494033       2.849835
                                                         0.988355       0.554319
                                                         0.344978       0.067245
                                                         0.099466       0.001940
                          1       6    4dyz             10.077428      14.259500
                                                         5.847736      15.771636
                                                         2.494033       4.936060
                                                         0.988355       0.960109
                                                         0.344978       0.116472
                                                         0.099466       0.003360
                          1       6    4dz2             10.077428       8.232726
                                                         5.847736       9.105758
                                                         2.494033       2.849835
                                                         0.988355       0.554319
                                                         0.344978       0.067245
                                                         0.099466       0.001940

                          1       7    5dx2             10.077428      -2.715373
                                                         5.847736      -4.020640
                                                         2.494033      -1.397569
                                                         0.988355      -0.076143
                                                         0.344978       0.033435
                                                         0.099466       0.026032
                          1       7    5dxy             10.077428      -4.703164
                                                         5.847736      -6.963952
                                                         2.494033      -2.420661
                                                         0.988355      -0.131883
                                                         0.344978       0.057911
                                                         0.099466       0.045088
                          1       7    5dxz             10.077428      -4.703164
                                                         5.847736      -6.963952
                                                         2.494033      -2.420661
                                                         0.988355      -0.131883
                                                         0.344978       0.057911
                                                         0.099466       0.045088
                          1       7    5dy2             10.077428      -2.715373
                                                         5.847736      -4.020640
                                                         2.494033      -1.397569
                                                         0.988355      -0.076143
                                                         0.344978       0.033435
                                                         0.099466       0.026032
                          1       7    5dyz             10.077428      -4.703164
                                                         5.847736      -6.963952
                                                         2.494033      -2.420661
                                                         0.988355      -0.131883
                                                         0.344978       0.057911
                                                         0.099466       0.045088
                          1       7    5dz2             10.077428      -2.715373
                                                         5.847736      -4.020640
                                                         2.494033      -1.397569
                                                         0.988355      -0.076143
                                                         0.344978       0.033435
                                                         0.099466       0.026032

                          1       8    5fx3             10.077428      -0.467694
                                                         5.847736       0.618100
                                                         2.494033       0.066069
                                                         0.988355       0.262898
                                                         0.344978       0.004720
                                                         0.099466       0.007748
                          1       8    5fx2y            10.077428      -1.045795
                                                         5.847736       1.382114
                                                         2.494033       0.147734
                                                         0.988355       0.587859
                                                         0.344978       0.010555
                                                         0.099466       0.017325
                          1       8    5fx2z            10.077428      -1.045795
                                                         5.847736       1.382114
                                                         2.494033       0.147734
                                                         0.988355       0.587859
                                                         0.344978       0.010555
                                                         0.099466       0.017325
                          1       8    5fxy2            10.077428      -1.045795
                                                         5.847736       1.382114
                                                         2.494033       0.147734
                                                         0.988355       0.587859
                                                         0.344978       0.010555
                                                         0.099466       0.017325
                          1       8    5fxyz            10.077428      -1.811371
                                                         5.847736       2.393892
                                                         2.494033       0.255883
                                                         0.988355       1.018201
                                                         0.344978       0.018282
                                                         0.099466       0.030008
                          1       8    5fxz2            10.077428      -1.045795
                                                         5.847736       1.382114
                                                         2.494033       0.147734
                                                         0.988355       0.587859
                                                         0.344978       0.010555
                                                         0.099466       0.017325
                          1       8    5fy3             10.077428      -0.467694
                                                         5.847736       0.618100
                                                         2.494033       0.066069
                                                         0.988355       0.262898
                                                         0.344978       0.004720
                                                         0.099466       0.007748
                          1       8    5fy2z            10.077428      -1.045795
                                                         5.847736       1.382114
                                                         2.494033       0.147734
                                                         0.988355       0.587859
                                                         0.344978       0.010555
                                                         0.099466       0.017325
                          1       8    5fyz2            10.077428      -1.045795
                                                         5.847736       1.382114
                                                         2.494033       0.147734
                                                         0.988355       0.587859
                                                         0.344978       0.010555
                                                         0.099466       0.017325
                          1       8    5fz3             10.077428      -0.467694
                                                         5.847736       0.618100
                                                         2.494033       0.066069
                                                         0.988355       0.262898
                                                         0.344978       0.004720
                                                         0.099466       0.007748

       Atomic covalent radius [Angstrom]:                                  1.150

       Atomic van der Waals radius [Angstrom]:                             1.630

     GTH Potential information for                                   GTH-PBE-q18

       Description:                       Goedecker-Teter-Hutter pseudopotential
                                           Goedecker et al., PRB 54, 1703 (1996)
                                          Hartwigsen et al., PRB 58, 3641 (1998)
                                                      Krack, TCA 114, 145 (2005)

       Gaussian exponent of the core charge distribution:               4.081633
       Electronic configuration (s p d ...):                           4   6   8

       Parameters of the local part of the GTH pseudopotential:

                          rloc        C1          C2          C3          C4
                        0.350000    2.102166    0.648484

       Parameters of the non-local part of the GTH pseudopotential:

                   l      r(l)      h(i,j,l)

                   0    0.261295    0.622658    9.970227
                                    9.970227  -12.871507
                   1    0.224253  -11.142708   12.429566
                                   12.429566  -14.706861
                   2    0.215348  -12.628146

  2. Atomic kind: Pt                                    Number of atoms:      24

     Orbital Basis Set                                        DZVP-MOLOPT-SR-GTH

       Number of orbital shell sets:                                           1
       Number of orbital shells:                                               8
       Number of primitive Cartesian functions:                                6
       Number of Cartesian basis functions:                                   31
       Number of spherical basis functions:                                   26
       Norm type:                                                              2

       Normalised Cartesian orbitals:

                        Set   Shell   Orbital            Exponent    Coefficient

                          1       1    2s                3.630668      -0.465500
                                                         3.114659       1.833739
                                                         1.999981      -1.065057
                                                         0.885340      -0.082598
                                                         0.330796      -0.055321
                                                         0.105770      -0.086847

                          1       2    3s                3.630668      -0.135752
                                                         3.114659       0.957679
                                                         1.999981      -0.689189
                                                         0.885340      -0.354326
                                                         0.330796       0.034544
                                                         0.105770       0.142189

                          1       3    4s                3.630668       0.505359
                                                         3.114659      -0.006270
                                                         1.999981      -0.343543
                                                         0.885340       1.287020
                                                         0.330796      -0.969575
                                                         0.105770       0.202315

                          1       4    3px               3.630668       3.197609
                                                         3.114659      -1.334416
                                                         1.999981      -1.492782
                                                         0.885340      -0.792435
                                                         0.330796      -0.047636
                                                         0.105770       0.000678
                          1       4    3py               3.630668       3.197609
                                                         3.114659      -1.334416
                                                         1.999981      -1.492782
                                                         0.885340      -0.792435
                                                         0.330796      -0.047636
                                                         0.105770       0.000678
                          1       4    3pz               3.630668       3.197609
                                                         3.114659      -1.334416
                                                         1.999981      -1.492782
                                                         0.885340      -0.792435
                                                         0.330796      -0.047636
                                                         0.105770       0.000678

                          1       5    4px               3.630668      -0.376239
                                                         3.114659       0.453823
                                                         1.999981      -0.390177
                                                         0.885340      -0.279003
                                                         0.330796       0.102288
                                                         0.105770       0.074263
                          1       5    4py               3.630668      -0.376239
                                                         3.114659       0.453823
                                                         1.999981      -0.390177
                                                         0.885340      -0.279003
                                                         0.330796       0.102288
                                                         0.105770       0.074263
                          1       5    4pz               3.630668      -0.376239
                                                         3.114659       0.453823
                                                         1.999981      -0.390177
                                                         0.885340      -0.279003
                                                         0.330796       0.102288
                                                         0.105770       0.074263

                          1       6    4dx2              3.630668      -4.869087
                                                         3.114659       3.422358
                                                         1.999981       0.942384
                                                         0.885340       0.638592
                                                         0.330796       0.100711
                                                         0.105770       0.004297
                          1       6    4dxy              3.630668      -8.433506
                                                         3.114659       5.927699
                                                         1.999981       1.632257
                                                         0.885340       1.106073
                                                         0.330796       0.174436
                                                         0.105770       0.007443
                          1       6    4dxz              3.630668      -8.433506
                                                         3.114659       5.927699
                                                         1.999981       1.632257
                                                         0.885340       1.106073
                                                         0.330796       0.174436
                                                         0.105770       0.007443
                          1       6    4dy2              3.630668      -4.869087
                                                         3.114659       3.422358
                                                         1.999981       0.942384
                                                         0.885340       0.638592
                                                         0.330796       0.100711
                                                         0.105770       0.004297
                          1       6    4dyz              3.630668      -8.433506
                                                         3.114659       5.927699
                                                         1.999981       1.632257
                                                         0.885340       1.106073
                                                         0.330796       0.174436
                                                         0.105770       0.007443
                          1       6    4dz2              3.630668      -4.869087
                                                         3.114659       3.422358
                                                         1.999981       0.942384
                                                         0.885340       0.638592
                                                         0.330796       0.100711
                                                         0.105770       0.004297

                          1       7    5dx2              3.630668       2.000513
                                                         3.114659      -0.906481
                                                         1.999981      -0.863477
                                                         0.885340      -0.429902
                                                         0.330796      -0.023611
                                                         0.105770       0.032414
                          1       7    5dxy              3.630668       3.464990
                                                         3.114659      -1.570070
                                                         1.999981      -1.495586
                                                         0.885340      -0.744611
                                                         0.330796      -0.040896
                                                         0.105770       0.056142
                          1       7    5dxz              3.630668       3.464990
                                                         3.114659      -1.570070
                                                         1.999981      -1.495586
                                                         0.885340      -0.744611
                                                         0.330796      -0.040896
                                                         0.105770       0.056142
                          1       7    5dy2              3.630668       2.000513
                                                         3.114659      -0.906481
                                                         1.999981      -0.863477
                                                         0.885340      -0.429902
                                                         0.330796      -0.023611
                                                         0.105770       0.032414
                          1       7    5dyz              3.630668       3.464990
                                                         3.114659      -1.570070
                                                         1.999981      -1.495586
                                                         0.885340      -0.744611
                                                         0.330796      -0.040896
                                                         0.105770       0.056142
                          1       7    5dz2              3.630668       2.000513
                                                         3.114659      -0.906481
                                                         1.999981      -0.863477
                                                         0.885340      -0.429902
                                                         0.330796      -0.023611
                                                         0.105770       0.032414

                          1       8    5fx3              3.630668       1.265943
                                                         3.114659      -1.633790
                                                         1.999981      -0.318265
                                                         0.885340      -0.300856
                                                         0.330796      -0.100756
                                                         0.105770       0.007484
                          1       8    5fx2y             3.630668       2.830734
                                                         3.114659      -3.653265
                                                         1.999981      -0.711663
                                                         0.885340      -0.672734
                                                         0.330796      -0.225296
                                                         0.105770       0.016736
                          1       8    5fx2z             3.630668       2.830734
                                                         3.114659      -3.653265
                                                         1.999981      -0.711663
                                                         0.885340      -0.672734
                                                         0.330796      -0.225296
                                                         0.105770       0.016736
                          1       8    5fxy2             3.630668       2.830734
                                                         3.114659      -3.653265
                                                         1.999981      -0.711663
                                                         0.885340      -0.672734
                                                         0.330796      -0.225296
                                                         0.105770       0.016736
                          1       8    5fxyz             3.630668       4.902974
                                                         3.114659      -6.327641
                                                         1.999981      -1.232636
                                                         0.885340      -1.165210
                                                         0.330796      -0.390225
                                                         0.105770       0.028987
                          1       8    5fxz2             3.630668       2.830734
                                                         3.114659      -3.653265
                                                         1.999981      -0.711663
                                                         0.885340      -0.672734
                                                         0.330796      -0.225296
                                                         0.105770       0.016736
                          1       8    5fy3              3.630668       1.265943
                                                         3.114659      -1.633790
                                                         1.999981      -0.318265
                                                         0.885340      -0.300856
                                                         0.330796      -0.100756
                                                         0.105770       0.007484
                          1       8    5fy2z             3.630668       2.830734
                                                         3.114659      -3.653265
                                                         1.999981      -0.711663
                                                         0.885340      -0.672734
                                                         0.330796      -0.225296
                                                         0.105770       0.016736
                          1       8    5fyz2             3.630668       2.830734
                                                         3.114659      -3.653265
                                                         1.999981      -0.711663
                                                         0.885340      -0.672734
                                                         0.330796      -0.225296
                                                         0.105770       0.016736
                          1       8    5fz3              3.630668       1.265943
                                                         3.114659      -1.633790
                                                         1.999981      -0.318265
                                                         0.885340      -0.300856
                                                         0.330796      -0.100756
                                                         0.105770       0.007484

       Atomic covalent radius [Angstrom]:                                  1.300

       Atomic van der Waals radius [Angstrom]:                             1.750

     GTH Potential information for                                   GTH-PBE-q18

       Description:                       Goedecker-Teter-Hutter pseudopotential
                                           Goedecker et al., PRB 54, 1703 (1996)
                                          Hartwigsen et al., PRB 58, 3641 (1998)
                                                      Krack, TCA 114, 145 (2005)

       Gaussian exponent of the core charge distribution:               2.000000
       Electronic configuration (s p d ...):                           3   6   9

       Parameters of the local part of the GTH pseudopotential:

                          rloc        C1          C2          C3          C4
                        0.500000    8.814323   -0.292509

       Parameters of the non-local part of the GTH pseudopotential:

                   l      r(l)      h(i,j,l)

                   0    0.298002   -5.968385   24.212900  -13.789679
                                   24.212900  -53.687634   35.604799
                                  -13.789679   35.604799  -28.260433
                   1    0.360172   -6.668659    7.170659    0.766904
                                    7.170659   -7.207661   -1.814825
                                    0.766904   -1.814825    1.289806
                   2    0.340532   -8.589905    9.410122
                                    9.410122  -10.670075


 MOLECULE KIND INFORMATION


 All atoms are their own molecule, skipping detailed information


 TOTAL NUMBERS AND MAXIMUM NUMBERS

  Total number of            - Atomic kinds:                                   2
                             - Atoms:                                         32
                             - Shell sets:                                    32
                             - Shells:                                       256
                             - Primitive Cartesian functions:                192
                             - Cartesian basis functions:                    992
                             - Spherical basis functions:                    832

  Maximum angular momentum of- Orbital basis functions:                        3
                             - Local part of the GTH pseudopotential:          2
                             - Non-local part of the GTH pseudopotential:      5


 MODULE QUICKSTEP:  ATOMIC COORDINATES IN angstrom

 Atom  Kind  Element       X           Y           Z          Z(eff)       Mass
    1   1 Ni  28       0.000000    0.000000    0.000000      18.0000     58.6934
    2   2 Pt  78       1.925000    1.925000    0.000000      18.0000    195.0840
    3   2 Pt  78       1.925000    0.000000    1.925000      18.0000    195.0840
    4   2 Pt  78       0.000000    1.925000    1.925000      18.0000    195.0840
    5   1 Ni  28       0.000000    0.000000    3.850000      18.0000     58.6934
    6   2 Pt  78       1.925000    1.925000    3.850000      18.0000    195.0840
    7   2 Pt  78       1.925000    0.000000    5.775000      18.0000    195.0840
    8   2 Pt  78       0.000000    1.925000    5.775000      18.0000    195.0840
    9   1 Ni  28       0.000000    3.850000    0.000000      18.0000     58.6934
   10   2 Pt  78       1.925000    5.775000    0.000000      18.0000    195.0840
   11   2 Pt  78       1.925000    3.850000    1.925000      18.0000    195.0840
   12   2 Pt  78       0.000000    5.775000    1.925000      18.0000    195.0840
   13   1 Ni  28       0.000000    3.850000    3.850000      18.0000     58.6934
   14   2 Pt  78       1.925000    5.775000    3.850000      18.0000    195.0840
   15   2 Pt  78       1.925000    3.850000    5.775000      18.0000    195.0840
   16   2 Pt  78       0.000000    5.775000    5.775000      18.0000    195.0840
   17   1 Ni  28       3.850000    0.000000    0.000000      18.0000     58.6934
   18   2 Pt  78       5.775000    1.925000    0.000000      18.0000    195.0840
   19   2 Pt  78       5.775000    0.000000    1.925000      18.0000    195.0840
   20   2 Pt  78       3.850000    1.925000    1.925000      18.0000    195.0840
   21   1 Ni  28       3.850000    0.000000    3.850000      18.0000     58.6934
   22   2 Pt  78       5.775000    1.925000    3.850000      18.0000    195.0840
   23   2 Pt  78       5.775000    0.000000    5.775000      18.0000    195.0840
   24   2 Pt  78       3.850000    1.925000    5.775000      18.0000    195.0840
   25   1 Ni  28       3.850000    3.850000    0.000000      18.0000     58.6934
   26   2 Pt  78       5.775000    5.775000    0.000000      18.0000    195.0840
   27   2 Pt  78       5.775000    3.850000    1.925000      18.0000    195.0840
   28   2 Pt  78       3.850000    5.775000    1.925000      18.0000    195.0840
   29   1 Ni  28       3.850000    3.850000    3.850000      18.0000     58.6934
   30   2 Pt  78       5.775000    5.775000    3.850000      18.0000    195.0840
   31   2 Pt  78       5.775000    3.850000    5.775000      18.0000    195.0840
   32   2 Pt  78       3.850000    5.775000    5.775000      18.0000    195.0840




 SCF PARAMETERS         Density guess:                                    ATOMIC
                        --------------------------------------------------------
                        max_scf:                                             300
                        max_scf_history:                                       0
                        max_diis:                                              4
                        --------------------------------------------------------
                        eps_scf:                                        1.00E-06
                        eps_scf_history:                                0.00E+00
                        eps_diis:                                       1.00E-01
                        eps_eigval:                                     1.00E-05
                        --------------------------------------------------------
                        level_shift [a.u.]:                             0.000000
                        added MOs                                        30   30
                        --------------------------------------------------------
                        Mixing method:                            BROYDEN_MIXING
                                                charge density mixing in g-space
                        --------------------------------------------------------
                        Smear method:                                FERMI_DIRAC
                        Electronic temperature [K]:                        300.0
                        Electronic temperature [a.u.]:                  9.50E-04
                        Accuracy threshold:                             1.00E-10
                        --------------------------------------------------------
                        No outer SCF

 PW_GRID| Information for grid number                                          1
 PW_GRID| Grid distributed over                                   128 processors
 PW_GRID| Real space group dimensions                                     8   16
 PW_GRID| the grid is blocked:                                               YES
 PW_GRID| Cutoff [a.u.]                                                    250.0
 PW_GRID| spherical cutoff:                                                   NO
 PW_GRID|   Bounds   1            -54      53                Points:         108
 PW_GRID|   Bounds   2            -54      53                Points:         108
 PW_GRID|   Bounds   3            -54      53                Points:         108
 PW_GRID| Volume element (a.u.^3)  0.2446E-02     Volume (a.u.^3)      3080.8374
 PW_GRID| Grid span                                                    FULLSPACE
 PW_GRID|   Distribution                         Average         Max         Min
 PW_GRID|   G-Vectors                             9841.5       10584        8424
 PW_GRID|   G-Rays                                  91.1          98          78
 PW_GRID|   Real Space Points                     9841.5       10584        8424

 PW_GRID| Information for grid number                                          2
 PW_GRID| Number of the reference grid                                         1
 PW_GRID| Grid distributed over                                   128 processors
 PW_GRID| Real space group dimensions                                     8   16
 PW_GRID| the grid is blocked:                                                NO
 PW_GRID| Cutoff [a.u.]                                                     83.3
 PW_GRID| spherical cutoff:                                                   NO
 PW_GRID|   Bounds   1            -30      29                Points:          60
 PW_GRID|   Bounds   2            -30      29                Points:          60
 PW_GRID|   Bounds   3            -30      29                Points:          60
 PW_GRID| Volume element (a.u.^3)  0.1426E-01     Volume (a.u.^3)      3080.8374
 PW_GRID| Grid span                                                    FULLSPACE
 PW_GRID|   Distribution                         Average         Max         Min
 PW_GRID|   G-Vectors                             1687.5        5880           0
 PW_GRID|   G-Rays                                  28.1          98           0
 PW_GRID|   Real Space Points                     1687.5        1920        1260

 PW_GRID| Information for grid number                                          3
 PW_GRID| Number of the reference grid                                         1
 PW_GRID| Grid distributed over                                   128 processors
 PW_GRID| Real space group dimensions                                     8   16
 PW_GRID| the grid is blocked:                                                NO
 PW_GRID| Cutoff [a.u.]                                                     27.8
 PW_GRID| spherical cutoff:                                                   NO
 PW_GRID|   Bounds   1            -18      17                Points:          36
 PW_GRID|   Bounds   2            -18      17                Points:          36
 PW_GRID|   Bounds   3            -18      17                Points:          36
 PW_GRID| Volume element (a.u.^3)  0.6603E-01     Volume (a.u.^3)      3080.8374
 PW_GRID| Grid span                                                    FULLSPACE
 PW_GRID|   Distribution                         Average         Max         Min
 PW_GRID|   G-Vectors                              364.5        3528           0
 PW_GRID|   G-Rays                                  10.1          98           0
 PW_GRID|   Real Space Points                      364.5         540         288

 PW_GRID| Information for grid number                                          4
 PW_GRID| Number of the reference grid                                         1
 PW_GRID| Grid distributed over                                   128 processors
 PW_GRID| Real space group dimensions                                     8   16
 PW_GRID| the grid is blocked:                                                NO
 PW_GRID| Cutoff [a.u.]                                                      9.3
 PW_GRID| spherical cutoff:                                                   NO
 PW_GRID|   Bounds   1            -10       9                Points:          20
 PW_GRID|   Bounds   2            -10       9                Points:          20
 PW_GRID|   Bounds   3            -10       9                Points:          20
 PW_GRID| Volume element (a.u.^3)  0.3851         Volume (a.u.^3)      3080.8374
 PW_GRID| Grid span                                                    FULLSPACE
 PW_GRID|   Distribution                         Average         Max         Min
 PW_GRID|   G-Vectors                               62.5        1400           0
 PW_GRID|   G-Rays                                   3.1          70           0
 PW_GRID|   Real Space Points                       62.5         120          40

 POISSON| Solver                                                        PERIODIC
 POISSON| Periodicity                                                        XYZ

 RS_GRID| Information for grid number                                          1
 RS_GRID|   Bounds   1            -54      53                Points:         108
 RS_GRID|   Bounds   2            -54      53                Points:         108
 RS_GRID|   Bounds   3            -54      53                Points:         108
 RS_GRID| Real space distribution over                                  8 groups
 RS_GRID| Real space distribution along direction                              2
 RS_GRID| Border size                                                         33
 RS_GRID| Real space distribution over                                 16 groups
 RS_GRID| Real space distribution along direction                              3
 RS_GRID| Border size                                                         33
 RS_GRID|   Distribution                         Average         Max         Min
 RS_GRID|   Planes                                  79.5          80          79
 RS_GRID|   Distribution                         Average         Max         Min
 RS_GRID|   Planes                                  72.8          73          72

 RS_GRID| Information for grid number                                          2
 RS_GRID|   Bounds   1            -30      29                Points:          60
 RS_GRID|   Bounds   2            -30      29                Points:          60
 RS_GRID|   Bounds   3            -30      29                Points:          60
 RS_GRID| Real space fully replicated
 RS_GRID| Group size                                                           1

 RS_GRID| Information for grid number                                          3
 RS_GRID|   Bounds   1            -18      17                Points:          36
 RS_GRID|   Bounds   2            -18      17                Points:          36
 RS_GRID|   Bounds   3            -18      17                Points:          36
 RS_GRID| Real space fully replicated
 RS_GRID| Group size                                                           1

 RS_GRID| Information for grid number                                          4
 RS_GRID|   Bounds   1            -10       9                Points:          20
 RS_GRID|   Bounds   2            -10       9                Points:          20
 RS_GRID|   Bounds   3            -10       9                Points:          20
 RS_GRID| Real space fully replicated
 RS_GRID| Group size                                                           1

 Spin 1

 Number of electrons:                                                        296
 Number of occupied orbitals:                                                296
 Number of molecular orbitals:                                               326

 Spin 2

 Number of electrons:                                                        280
 Number of occupied orbitals:                                                280
 Number of molecular orbitals:                                               326

 Number of orbital functions:                                                832
 Number of independent orbital functions:                                    832

 Extrapolation method: initial_guess

 Atomic guess: The first density matrix is obtained in terms of atomic orbitals
               and electronic configurations assigned to each atomic kind

 Guess for atomic kind: Ni

 Electronic structure
    Total number of core electrons                                         10.00
    Total number of valence electrons                                      18.00
    Total number of electrons                                              28.00
    Multiplicity                                                         triplet
    Alpha Electrons
    S   [  1.00  1.00] 1.00  1.00
    P   [  3.00] 3.00
    D      5.00
    Beta Electrons
    S   [  1.00  1.00] 1.00  1.00
    P   [  3.00] 3.00
    D      3.00


 *******************************************************************************
                  Iteration          Convergence                     Energy [au]
 *******************************************************************************
                          1         1.61955                    -167.102733612646
                          2         17.9576                    -156.964728082342
                          3         2.81889                    -168.347679739779
                          4        0.300879                    -168.639029543130
                          5        0.133614                    -168.643718125190
                          6        0.642384E-01                -168.645928334381
                          7        0.411618E-01                -168.646613747745
                          8        0.978516E-02                -168.646711132537
                          9        0.508781E-01                -168.646571314898
                         10        0.138948E-01                -168.646700563277
                         11        0.138660E-01                -168.646700237384
                         12        0.629414E-02                -168.646712261956
                         13        0.566241E-02                -168.646713151996
                         14        0.495313E-02                -168.646714117454
                         15        0.421991E-02                -168.646714987798
                         16        0.338228E-02                -168.646715812720
                         17        0.416465E-02                -168.646716816326
                         18        0.344616E-02                -168.646717043212
                         19        0.330991E-02                -168.646717101846
                         20        0.313342E-02                -168.646717172930
                         21        0.281829E-02                -168.646717286496
                         22        0.848656E-03                -168.646717732580
                         23        0.109512E-02                -168.646717723740
                         24        0.104995E-02                -168.646717732012
                         25        0.102855E-02                -168.646717736906
                         26        0.100245E-02                -168.646717743176
                         27        0.676032E-03                -168.646717806927
                         28        0.602106E-03                -168.646717861030
                         29        0.625282E-03                -168.646717860099
                         30        0.624945E-03                -168.646717860052
                         31        0.623853E-03                -168.646717860100
                         32        0.624150E-03                -168.646717860067
                         33        0.237289E-03                -168.646717879062
                         34        0.180801E-03                -168.646717882280
                         35        0.181452E-03                -168.646717882256
                         36        0.181661E-03                -168.646717882245
                         37        0.181696E-03                -168.646717882243
                         38        0.180660E-03                -168.646717882285
                         39        0.167278E-03                -168.646717884960
                         40        0.108251E-03                -168.646717886084
                         41        0.108355E-03                -168.646717886083
                         42        0.108427E-03                -168.646717886083
                         43        0.108486E-03                -168.646717886083
                         44        0.108485E-03                -168.646717886083
                         45        0.694677E-04                -168.646717886478
                         46        0.318666E-04                -168.646717886752
                         47        0.318508E-04                -168.646717886753
                         48        0.318379E-04                -168.646717886753
                         49        0.318252E-04                -168.646717886753
                         50        0.320703E-04                -168.646717886751
 No convergence within maximum number of iterations 

 Energy components [Hartree]           Total Energy ::         -168.646717886751
                                        Band Energy ::          -26.584923955507
                                     Kinetic Energy ::           97.352330251814
                                   Potential Energy ::         -265.999048138565
                                      Virial (-V/T) ::            2.732333652934
                                        Core Energy ::         -299.595021414610
                                          XC Energy ::          -16.265210292971
                                     Coulomb Energy ::          147.213513820830
                       Total Pseudopotential Energy ::         -397.033695283644
                       Local Pseudopotential Energy ::         -362.697061997994
                    Nonlocal Pseudopotential Energy ::          -34.336633285650
                                        Confinement ::            0.863436172188

 Orbital energies  State     Spin  L     Occupation   Energy[a.u.]    Energy[eV]

                       1    alpha  0          1.000      -4.198782   -114.254674
                       2    alpha  0          1.000      -0.185813     -5.056229
                       1     beta  0          1.000      -4.107299   -111.765292
                       2     beta  0          1.000      -0.171331     -4.662162

                       1    alpha  1          3.000      -2.604156    -70.862688
                       1     beta  1          3.000      -2.515143    -68.440529

                       1    alpha  2          5.000      -0.348813     -9.491687
                       1     beta  2          3.000      -0.273245     -7.435375


 Total Electron Density at R=0:                                         0.030313

 Guess for atomic kind: Pt

 Electronic structure
    Total number of core electrons                                         60.00
    Total number of valence electrons                                      18.00
    Total number of electrons                                              78.00
    Multiplicity                                                   not specified
    S   [  2.00  2.00  2.00  2.00] 2.00  1.00
    P   [  6.00  6.00  6.00] 6.00
    D   [ 10.00 10.00] 9.00
    F   [ 14.00]


 *******************************************************************************
                  Iteration          Convergence                     Energy [au]
 *******************************************************************************
                          1         2.59832                    -119.138276144550
                          2         1.40867                    -119.294561157880
                          3        0.239732                    -119.635011640197
                          4        0.290702E-01                -119.640715792839
                          5        0.526181E-03                -119.640802122460
                          6        0.268219E-04                -119.640802151487
                          7        0.445837E-05                -119.640802151560
                          8        0.251975E-05                -119.640802151561
                          9        0.583894E-08                -119.640802151562

 Energy components [Hartree]           Total Energy ::         -119.640802151562
                                        Band Energy ::          -21.642284984739
                                     Kinetic Energy ::           38.738448390750
                                   Potential Energy ::         -158.379250542312
                                      Virial (-V/T) ::            4.088425249890
                                        Core Energy ::         -209.816121300172
                                          XC Energy ::          -11.387872662385
                                     Coulomb Energy ::          101.563191810995
                       Total Pseudopotential Energy ::         -248.670636602507
                       Local Pseudopotential Energy ::         -235.760456673600
                    Nonlocal Pseudopotential Energy ::          -12.910179928907
                                        Confinement ::            1.160669115856

 Orbital energies  State     L     Occupation   Energy[a.u.]          Energy[eV]

                       1     0          2.000      -3.692804         -100.486303
                       2     0          1.000      -0.187053           -5.089963

                       1     1          6.000      -2.039394          -55.494738

                       1     2          9.000      -0.203695           -5.542836


 Total Electron Density at R=0:                                         0.008548

 Spin 1
 Re-scaling the density matrix to get the right number of electrons for spin 1
                  # Electrons              Trace(P)               Scaling factor
                          296               296.000                        1.000
 ispin           1
 rds   1.0000000000001967     

 Spin 2
 Re-scaling the density matrix to get the right number of electrons for spin 2
                  # Electrons              Trace(P)               Scaling factor
                          280               280.000                        1.000
 ispin           2
 rds   1.0000000000002156     


 SCF WAVEFUNCTION OPTIMIZATION

  Step     Update method      Time    Convergence         Total energy    Change
  ------------------------------------------------------------------------------
     1 NoMix/Diag. 0.40E-01    2.9     0.79621828     -4248.9392196105 -4.25E+03
     2 Broy./Diag. 0.40E-01    2.8     0.04149998     -4226.1922658115  2.27E+01
     3 Broy./Diag. 0.40E-01    2.8     0.63875206     -4234.7006479997 -8.51E+00
     4 Broy./Diag. 0.40E-01    2.8     0.51365068     -4308.2960320979 -7.36E+01
     5 Broy./Diag. 0.40E-01    2.8     0.09181981     -4261.6270313770  4.67E+01
     6 Broy./Diag. 0.40E-01    2.8     0.20240362     -4267.9247404461 -6.30E+00
     7 Broy./Diag. 0.40E-01    2.8     0.19025068     -4237.3803549223  3.05E+01
     8 Broy./Diag. 0.40E-01    2.8     0.11314811     -4250.0514523498 -1.27E+01
     9 Broy./Diag. 0.40E-01    2.8     0.02392712     -4233.2922993534  1.68E+01
    10 Broy./Diag. 0.40E-01    2.8     0.04362179     -4235.5095333960 -2.22E+00
    11 Broy./Diag. 0.40E-01    2.8     0.04556444     -4232.8679903025  2.64E+00
    12 Broy./Diag. 0.40E-01    2.8     0.01027796     -4239.8937718797 -7.03E+00
    13 Broy./Diag. 0.40E-01    2.8     0.03353729     -4239.9208637891 -2.71E-02
    14 Broy./Diag. 0.40E-01    2.8     0.00751759     -4237.1202101644  2.80E+00
    15 Broy./Diag. 0.40E-01    2.8     0.03992938     -4236.9551150708  1.65E-01
    16 Broy./Diag. 0.40E-01    2.8     0.00855973     -4234.4314242688  2.52E+00
    17 Broy./Diag. 0.40E-01    2.8     0.00973958     -4235.0712125358 -6.40E-01
    18 Broy./Diag. 0.40E-01    2.8     0.00409417     -4236.0520534225 -9.81E-01
    19 Broy./Diag. 0.40E-01    2.8     0.00420036     -4236.3296086094 -2.78E-01
    20 Broy./Diag. 0.40E-01    2.8     0.00071825     -4236.7967202606 -4.67E-01
    21 Broy./Diag. 0.40E-01    2.8     0.00294464     -4236.9391325395 -1.42E-01
    22 Broy./Diag. 0.40E-01    2.8     0.00321558     -4237.2956032800 -3.56E-01
    23 Broy./Diag. 0.40E-01    2.8     0.00416284     -4237.6498808548 -3.54E-01
    24 Broy./Diag. 0.40E-01    2.8     0.00680963     -4238.0746774016 -4.25E-01
    25 Broy./Diag. 0.40E-01    2.8     0.00361168     -4238.6919462379 -6.17E-01
    26 Broy./Diag. 0.40E-01    2.8     0.00082280     -4238.9823261778 -2.90E-01
    27 Broy./Diag. 0.40E-01    2.8     0.00049106     -4238.9875840307 -5.26E-03
    28 Broy./Diag. 0.40E-01    2.8     0.00105025     -4239.0060055435 -1.84E-02
    29 Broy./Diag. 0.40E-01    2.8     0.00032864     -4239.1068066511 -1.01E-01
    30 Broy./Diag. 0.40E-01    2.8     0.00010004     -4239.1126533690 -5.85E-03
    31 Broy./Diag. 0.40E-01    2.8     0.00190606     -4239.1111737660  1.48E-03
    32 Broy./Diag. 0.40E-01    2.8     0.00079708     -4239.1289463986 -1.78E-02
    33 Broy./Diag. 0.40E-01    2.8     0.00035112     -4239.1350654855 -6.12E-03
    34 Broy./Diag. 0.40E-01    2.8     0.00936052     -4239.1245283909  1.05E-02
    35 Broy./Diag. 0.40E-01    2.8     0.01905139     -4239.5234551470 -3.99E-01
    36 Broy./Diag. 0.40E-01    2.8     0.00341198     -4238.6005822749  9.23E-01
    37 Broy./Diag. 0.40E-01    2.8     0.00762863     -4238.5457006462  5.49E-02
    38 Broy./Diag. 0.40E-01    2.8     0.00853369     -4238.9238185927 -3.78E-01
    39 Broy./Diag. 0.40E-01    2.8     0.00138812     -4238.4590845687  4.65E-01
    40 Broy./Diag. 0.40E-01    2.8     0.00747160     -4238.4497823946  9.30E-03
    41 Broy./Diag. 0.40E-01    2.8     0.00066159     -4238.7634018188 -3.14E-01
    42 Broy./Diag. 0.40E-01    2.8     0.00159491     -4238.8462690948 -8.29E-02
    43 Broy./Diag. 0.40E-01    2.8     0.00182673     -4238.8724649088 -2.62E-02
    44 Broy./Diag. 0.40E-01    2.8     0.00081772     -4238.6873101830  1.85E-01
    45 Broy./Diag. 0.40E-01    2.8     0.01217228     -4238.6405585788  4.68E-02
    46 Broy./Diag. 0.40E-01    2.8     0.00723871     -4238.0781161226  5.62E-01
    47 Broy./Diag. 0.40E-01    2.8     0.00257147     -4237.7628597167  3.15E-01
    48 Broy./Diag. 0.40E-01    2.8     0.02378600     -4237.6416809756  1.21E-01
    49 Broy./Diag. 0.40E-01    2.8     0.03236766     -4236.8879356510  7.54E-01
    50 Broy./Diag. 0.40E-01    3.0     0.00921642     -4236.6317284583  2.56E-01
    51 Broy./Diag. 0.40E-01    2.8     0.02281914     -4236.7308215938 -9.91E-02
    52 Broy./Diag. 0.40E-01    2.8     0.00238105     -4237.0316662832 -3.01E-01
    53 Broy./Diag. 0.40E-01    2.8     0.03213751     -4237.3139242847 -2.82E-01
    54 Broy./Diag. 0.40E-01    2.8     0.00987753     -4237.7253439632 -4.11E-01
    55 Broy./Diag. 0.40E-01    2.8     0.00473587     -4237.8903918432 -1.65E-01
    56 Broy./Diag. 0.40E-01    2.8     0.00256798     -4238.2168170074 -3.26E-01
    57 Broy./Diag. 0.40E-01    2.8     0.00997184     -4238.1863101606  3.05E-02
    58 Broy./Diag. 0.40E-01    2.8     0.00401600     -4239.3017071766 -1.12E+00
    59 Broy./Diag. 0.40E-01    2.8     0.00105966     -4239.0192361444  2.82E-01
    60 Broy./Diag. 0.40E-01    2.8     0.00051206     -4239.1678955813 -1.49E-01
    61 Broy./Diag. 0.40E-01    2.8     0.00775076     -4239.1958984375 -2.80E-02
    62 Broy./Diag. 0.40E-01    2.8     0.00616192     -4239.2785622264 -8.27E-02
    63 Broy./Diag. 0.40E-01    2.8     0.01690062     -4239.1653025326  1.13E-01
    64 Broy./Diag. 0.40E-01    2.8     0.00306684     -4239.3433817358 -1.78E-01
    65 Broy./Diag. 0.40E-01    2.8     0.00100658     -4239.3102811886  3.31E-02
    66 Broy./Diag. 0.40E-01    2.8     0.00772576     -4239.2771717517  3.31E-02
    67 Broy./Diag. 0.40E-01    2.8     0.00353229     -4239.1768242318  1.00E-01
    68 Broy./Diag. 0.40E-01    2.8     0.00876750     -4239.0394018044  1.37E-01
    69 Broy./Diag. 0.40E-01    2.8     0.00178001     -4238.9035311793  1.36E-01
    70 Broy./Diag. 0.40E-01    2.8     0.00180941     -4239.0353800668 -1.32E-01
    71 Broy./Diag. 0.40E-01    2.8     0.00359632     -4239.1323795960 -9.70E-02
    72 Broy./Diag. 0.40E-01    2.8     0.00497135     -4239.1214406834  1.09E-02
    73 Broy./Diag. 0.40E-01    2.8     0.00123088     -4238.9387858613  1.83E-01
    74 Broy./Diag. 0.40E-01    2.8     0.00203319     -4238.8762061407  6.26E-02
    75 Broy./Diag. 0.40E-01    2.8     0.00108817     -4239.0676684964 -1.91E-01
    76 Broy./Diag. 0.40E-01    2.8     0.00137262     -4239.1367045512 -6.90E-02
    77 Broy./Diag. 0.40E-01    2.8     0.00098463     -4239.1598815965 -2.32E-02
    78 Broy./Diag. 0.40E-01    2.8     0.00046498     -4239.1101785401  4.97E-02
    79 Broy./Diag. 0.40E-01    2.8     0.00085330     -4239.1247657452 -1.46E-02
    80 Broy./Diag. 0.40E-01    2.8     0.00042606     -4239.1280242205 -3.26E-03
    81 Broy./Diag. 0.40E-01    2.8     0.00094408     -4239.1300908590 -2.07E-03
    82 Broy./Diag. 0.40E-01    2.8     0.00101552     -4239.1327436397 -2.65E-03
    83 Broy./Diag. 0.40E-01    2.8     0.00083212     -4239.1084101085  2.43E-02
    84 Broy./Diag. 0.40E-01    2.8     0.00078534     -4239.1172395298 -8.83E-03
    85 Broy./Diag. 0.40E-01    2.8     0.00187809     -4239.1033373639  1.39E-02
    86 Broy./Diag. 0.40E-01    2.8     0.00064941     -4239.1002962013  3.04E-03
    87 Broy./Diag. 0.40E-01    2.8     0.00007243     -4239.1009944720 -6.98E-04
    88 Broy./Diag. 0.40E-01    2.8     0.00020006     -4239.1034142140 -2.42E-03
    89 Broy./Diag. 0.40E-01    2.8     0.00021912     -4239.1070290782 -3.61E-03
    90 Broy./Diag. 0.40E-01    2.8     0.00009074     -4239.1029323576  4.10E-03
    91 Broy./Diag. 0.40E-01    2.8     0.00012863     -4239.0999565896  2.98E-03
    92 Broy./Diag. 0.40E-01    2.8     0.00021951     -4239.0999233900  3.32E-05
    93 Broy./Diag. 0.40E-01    2.8     0.00086943     -4239.1021876246 -2.26E-03
    94 Broy./Diag. 0.40E-01    2.8     0.00006439     -4239.1082198724 -6.03E-03
    95 Broy./Diag. 0.40E-01    2.8     0.00135269     -4239.1069168706  1.30E-03
    96 Broy./Diag. 0.40E-01    2.8     0.00086063     -4239.1049584138  1.96E-03
    97 Broy./Diag. 0.40E-01    2.8     0.00047741     -4239.1046962743  2.62E-04
    98 Broy./Diag. 0.40E-01    2.8     0.00046662     -4239.1049042988 -2.08E-04
    99 Broy./Diag. 0.40E-01    2.8     0.00065900     -4239.1043518764  5.52E-04
   100 Broy./Diag. 0.40E-01    2.8     0.00228232     -4239.1043693658 -1.75E-05
   101 Broy./Diag. 0.40E-01    2.8     0.00047766     -4239.1031124774  1.26E-03
   102 Broy./Diag. 0.40E-01    2.8     0.00009488     -4239.1033671901 -2.55E-04
   103 Broy./Diag. 0.40E-01    2.8     0.00077735     -4239.1028256750  5.42E-04
   104 Broy./Diag. 0.40E-01    2.8     0.00027462     -4239.1024255421  4.00E-04
   105 Broy./Diag. 0.40E-01    2.8     0.00055327     -4239.1015153355  9.10E-04
   106 Broy./Diag. 0.40E-01    2.8     0.00070752     -4239.1014330445  8.23E-05
   107 Broy./Diag. 0.40E-01    2.8     0.00055887     -4239.1015898953 -1.57E-04
   108 Broy./Diag. 0.40E-01    2.8     0.00058380     -4239.1014896740  1.00E-04
   109 Broy./Diag. 0.40E-01    2.8     0.00077211     -4239.1014127579  7.69E-05
   110 Broy./Diag. 0.40E-01    2.8     0.00032936     -4239.1007064167  7.06E-04
   111 Broy./Diag. 0.40E-01    2.8     0.00039589     -4239.1008273161 -1.21E-04
   112 Broy./Diag. 0.40E-01    2.8     0.00014705     -4239.1012161083 -3.89E-04
   113 Broy./Diag. 0.40E-01    2.8     0.00048602     -4239.1021320144 -9.16E-04
   114 Broy./Diag. 0.40E-01    2.8     0.00017527     -4239.1024742153 -3.42E-04
   115 Broy./Diag. 0.40E-01    2.8     0.00026481     -4239.1024843056 -1.01E-05
   116 Broy./Diag. 0.40E-01    2.8     0.00020139     -4239.1023743705  1.10E-04
   117 Broy./Diag. 0.40E-01    2.8     0.00028174     -4239.1022524136  1.22E-04
   118 Broy./Diag. 0.40E-01    2.8     0.00086405     -4239.1018305192  4.22E-04
   119 Broy./Diag. 0.40E-01    2.8     0.00051491     -4239.1023052719 -4.75E-04
   120 Broy./Diag. 0.40E-01    2.8     0.00041249     -4239.1019937296  3.12E-04
   121 Broy./Diag. 0.40E-01    2.8     0.00011126     -4239.1023376144 -3.44E-04
   122 Broy./Diag. 0.40E-01    2.8     0.00041740     -4239.1022618956  7.57E-05
   123 Broy./Diag. 0.40E-01    2.8     0.00064377     -4239.1023285201 -6.66E-05
   124 Broy./Diag. 0.40E-01    2.8     0.00028977     -4239.1023366710 -8.15E-06
   125 Broy./Diag. 0.40E-01    2.8     0.00018835     -4239.1021326673  2.04E-04
   126 Broy./Diag. 0.40E-01    2.8     0.00018237     -4239.1020997724  3.29E-05
   127 Broy./Diag. 0.40E-01    2.8     0.00030920     -4239.1019405901  1.59E-04
   128 Broy./Diag. 0.40E-01    2.8     0.00007375     -4239.1020739958 -1.33E-04
   129 Broy./Diag. 0.40E-01    2.8     0.00058509     -4239.1018106631  2.63E-04
   130 Broy./Diag. 0.40E-01    2.8     0.00019618     -4239.1014424517  3.68E-04
   131 Broy./Diag. 0.40E-01    2.8     0.00020556     -4239.1012414791  2.01E-04
   132 Broy./Diag. 0.40E-01    2.8     0.00022264     -4239.1012650514 -2.36E-05
   133 Broy./Diag. 0.40E-01    2.8     0.00018809     -4239.1013060168 -4.10E-05
   134 Broy./Diag. 0.40E-01    2.8     0.00038951     -4239.1010635551  2.42E-04
   135 Broy./Diag. 0.40E-01    2.8     0.00023889     -4239.1011686446 -1.05E-04
   136 Broy./Diag. 0.40E-01    2.8     0.00031071     -4239.1010430806  1.26E-04
   137 Broy./Diag. 0.40E-01    2.8     0.00027000     -4239.1009399854  1.03E-04
   138 Broy./Diag. 0.40E-01    2.8     0.00001503     -4239.1013486746 -4.09E-04
   139 Broy./Diag. 0.40E-01    2.8     0.00043083     -4239.1015215485 -1.73E-04
   140 Broy./Diag. 0.40E-01    2.8     0.00016121     -4239.1015197773  1.77E-06
   141 Broy./Diag. 0.40E-01    2.8     0.00013632     -4239.1015367430 -1.70E-05
   142 Broy./Diag. 0.40E-01    2.8     0.00018377     -4239.1017108667 -1.74E-04
   143 Broy./Diag. 0.40E-01    2.8     0.00025733     -4239.1014811158  2.30E-04
   144 Broy./Diag. 0.40E-01    2.8     0.00010480     -4239.1018836229 -4.03E-04
   145 Broy./Diag. 0.40E-01    2.8     0.00002854     -4239.1018903382 -6.72E-06
   146 Broy./Diag. 0.40E-01    2.8     0.00011216     -4239.1017579157  1.32E-04
   147 Broy./Diag. 0.40E-01    2.8     0.00034226     -4239.1017168640  4.11E-05
   148 Broy./Diag. 0.40E-01    2.8     0.00002989     -4239.1015021756  2.15E-04
   149 Broy./Diag. 0.40E-01    2.8     0.00001322     -4239.1014485193  5.37E-05
   150 Broy./Diag. 0.40E-01    2.8     0.00012927     -4239.1014546171 -6.10E-06
   151 Broy./Diag. 0.40E-01    2.8     0.00006826     -4239.1016196244 -1.65E-04
   152 Broy./Diag. 0.40E-01    2.8     0.00002359     -4239.1015447441  7.49E-05
   153 Broy./Diag. 0.40E-01    3.0     0.00018846     -4239.1012995525  2.45E-04
   154 Broy./Diag. 0.40E-01    2.8     0.00025086     -4239.1014074953 -1.08E-04
   155 Broy./Diag. 0.40E-01    2.8     0.00022530     -4239.1011919984  2.15E-04
   156 Broy./Diag. 0.40E-01    2.8     0.00033111     -4239.1011398067  5.22E-05
   157 Broy./Diag. 0.40E-01    2.8     0.00029460     -4239.1011870223 -4.72E-05
   158 Broy./Diag. 0.40E-01    2.8     0.00023232     -4239.1012305889 -4.36E-05
   159 Broy./Diag. 0.40E-01    2.8     0.00021614     -4239.1013603455 -1.30E-04
   160 Broy./Diag. 0.40E-01    2.8     0.00030260     -4239.1014788294 -1.18E-04
   161 Broy./Diag. 0.40E-01    2.8     0.00008216     -4239.1012691303  2.10E-04
   162 Broy./Diag. 0.40E-01    2.8     0.00002918     -4239.1012306452  3.85E-05
   163 Broy./Diag. 0.40E-01    2.8     0.00010056     -4239.1013863181 -1.56E-04
   164 Broy./Diag. 0.40E-01    2.8     0.00029927     -4239.1014430433 -5.67E-05
   165 Broy./Diag. 0.40E-01    2.8     0.00019629     -4239.1012936025  1.49E-04
   166 Broy./Diag. 0.40E-01    2.8     0.00031638     -4239.1013325575 -3.90E-05
   167 Broy./Diag. 0.40E-01    2.8     0.00004297     -4239.1012039812  1.29E-04
   168 Broy./Diag. 0.40E-01    2.8     0.00001743     -4239.1010829774  1.21E-04
   169 Broy./Diag. 0.40E-01    2.8     0.00015060     -4239.1009531837  1.30E-04
   170 Broy./Diag. 0.40E-01    2.8     0.00006003     -4239.1010966342 -1.43E-04
   171 Broy./Diag. 0.40E-01    2.8     0.00017799     -4239.1010540995  4.25E-05
   172 Broy./Diag. 0.40E-01    2.8     0.00012510     -4239.1009461078  1.08E-04
   173 Broy./Diag. 0.40E-01    2.8     0.00005165     -4239.1010752459 -1.29E-04
   174 Broy./Diag. 0.40E-01    2.8     0.00009484     -4239.1011430047 -6.78E-05
   175 Broy./Diag. 0.40E-01    2.8     0.00006961     -4239.1010407565  1.02E-04
   176 Broy./Diag. 0.40E-01    2.8     0.00015998     -4239.1010467398 -5.98E-06
   177 Broy./Diag. 0.40E-01    2.8     0.00012726     -4239.1009486873  9.81E-05
   178 Broy./Diag. 0.40E-01    2.8     0.00006960     -4239.1008635701  8.51E-05
   179 Broy./Diag. 0.40E-01    2.8     0.00009682     -4239.1009235101 -5.99E-05
   180 Broy./Diag. 0.40E-01    2.8     0.00011110     -4239.1008869355  3.66E-05
   181 Broy./Diag. 0.40E-01    2.8     0.00023617     -4239.1008566558  3.03E-05
   182 Broy./Diag. 0.40E-01    2.8     0.00007761     -4239.1007813564  7.53E-05
   183 Broy./Diag. 0.40E-01    2.8     0.00002524     -4239.1007796391  1.72E-06
   184 Broy./Diag. 0.40E-01    2.8     0.00029115     -4239.1007823899 -2.75E-06
   185 Broy./Diag. 0.40E-01    2.8     0.00008997     -4239.1006449201  1.37E-04
   186 Broy./Diag. 0.40E-01    2.8     0.00006266     -4239.1005482091  9.67E-05
   187 Broy./Diag. 0.40E-01    2.8     0.00006880     -4239.1005325539  1.57E-05
   188 Broy./Diag. 0.40E-01    2.8     0.00005674     -4239.1005944788 -6.19E-05
   189 Broy./Diag. 0.40E-01    2.8     0.00011611     -4239.1006618595 -6.74E-05
   190 Broy./Diag. 0.40E-01    2.8     0.00003981     -4239.1006601422  1.72E-06
   191 Broy./Diag. 0.40E-01    2.8     0.00005361     -4239.1007752707 -1.15E-04
   192 Broy./Diag. 0.40E-01    2.8     0.00023447     -4239.1007072930  6.80E-05
   193 Broy./Diag. 0.40E-01    2.8     0.00033791     -4239.1007952555 -8.80E-05
   194 Broy./Diag. 0.40E-01    2.8     0.00036998     -4239.1005526310  2.43E-04
   195 Broy./Diag. 0.40E-01    2.8     0.00053588     -4239.1004881015  6.45E-05
   196 Broy./Diag. 0.40E-01    2.8     0.00039128     -4239.1006005195 -1.12E-04
   197 Broy./Diag. 0.40E-01    2.8     0.00025775     -4239.1005395608  6.10E-05
   198 Broy./Diag. 0.40E-01    2.8     0.00011691     -4239.1006312159 -9.17E-05
   199 Broy./Diag. 0.40E-01    2.8     0.00020430     -4239.1007685574 -1.37E-04
   200 Broy./Diag. 0.40E-01    2.8     0.00008374     -4239.1008810735 -1.13E-04
   201 Broy./Diag. 0.40E-01    2.8     0.00017663     -4239.1009852043 -1.04E-04
   202 Broy./Diag. 0.40E-01    2.8     0.00022733     -4239.1007320435  2.53E-04
