 DBCSR| CPU Multiplication driver                                           XSMM (U)
 DBCSR| Multrec recursion limit                                              512 (U)
 DBCSR| Multiplication stack size                                           1000 (D)
 DBCSR| Maximum elements for images                                    UNLIMITED (U)
 DBCSR| Multiplicative factor virtual images                                   1 (U)
 DBCSR| Use multiplication densification                                       T (D)
 DBCSR| Multiplication size stacks                                             3 (U)
 DBCSR| Use memory pool for CPU allocation                                     F (U)
 DBCSR| Number of 3D layers                                               SINGLE (U)
 DBCSR| Use MPI memory allocation                                              F (U)
 DBCSR| Use RMA algorithm                                                      F (U)
 DBCSR| Use Communication thread                                               T (U)
 DBCSR| Communication thread load                                             87 (D)
 DBCSR| MPI: My process id                                                     0
 DBCSR| MPI: Number of processes                                             128
 DBCSR| OMP: Current number of threads                                         1
 DBCSR| OMP: Max number of threads                                             1
 DBCSR| Split modifier for TAS multiplication algorithm                  1.0E+00 (U)


  **** **** ******  **  PROGRAM STARTED AT               2023-02-15 13:23:41.779
 ***** ** ***  *** **   PROGRAM STARTED ON                             nid006727
 **    ****   ******    PROGRAM STARTED BY                                cahart
 ***** **    ** ** **   PROGRAM PROCESS ID                                  2592
  **** **  *******  **  PROGRAM STARTED IN /mnt/lustre/a2fs-work2/work/e05/e05/c
                                           ahart/postdoc/masters/ni/archer2/slab
                                           /optimise/magnetisation/scf_1e-4_temp
                                           -2000_mos-1000_alpha-0.08_beta-1.5_pe
                                           riodic-xyz/search/0.49_0.7

 CP2K| version string:                 CP2K version 2023.1 (Development Version)
 CP2K| source code revision number:                                  git:964cd58
 CP2K| cp2kflags: omp libint fftw3 libxc elpa parallel scalapack xsmm plumed2 mk
 CP2K|            l
 CP2K| is freely available from                            https://www.cp2k.org/
 CP2K| Program compiled at                          Mon 13 Feb 17:05:14 GMT 2023
 CP2K| Program compiled on                                                  ln01
 CP2K| Program compiled for                                              ARCHER2
 CP2K| Data directory path    /work/e05/e05/cahart/cp2k/cp2k-2023.1/cp2k-2023.1-
 CP2K| Input file name                                                  cp2k.inp

 GLOBAL| Force Environment number                                              1
 GLOBAL| Basis set file name                                        BASIS_MOLOPT
 GLOBAL| Potential file name                                      GTH_POTENTIALS
 GLOBAL| MM Potential file name                                     MM_POTENTIAL
 GLOBAL| Coordinate file name                                      __STD_INPUT__
 GLOBAL| Method name                                                        CP2K
 GLOBAL| Project name                                                    Ni_bulk
 GLOBAL| Run type                                                         ENERGY
 GLOBAL| FFT library                                                       FFTW3
 GLOBAL| Diagonalization library                                            ELPA
 GLOBAL| DGEMM library                                                      BLAS
 GLOBAL| Minimum number of eigenvectors for ELPA usage                        16
 GLOBAL| Orthonormality check for eigenvectors                          DISABLED
 GLOBAL| Matrix multiplication library                                 ScaLAPACK
 GLOBAL| All-to-all communication in single precision                          F
 GLOBAL| FFTs using library dependent lengths                                  F
 GLOBAL| Grid backend                                                       AUTO
 GLOBAL| Global print level                                               MEDIUM
 GLOBAL| MPI I/O enabled                                                       T
 GLOBAL| Total number of message passing processes                           128
 GLOBAL| Number of threads for this process                                    1
 GLOBAL| This output is from process                                           0
 GLOBAL| Stack size for threads created by OpenMP (OMP_STACKSIZE)        default
 GLOBAL| CPU model name                          AMD EPYC 7742 64-Core Processor
 GLOBAL| CPUID                                                              1002

 MEMORY| system memory details [Kb]
 MEMORY|                        rank 0           min           max       average
 MEMORY| MemTotal            263528088     263528088     263528088     263528088
 MEMORY| MemFree             238802748     238802748     238802748     238802748
 MEMORY| Buffers                 24624         24624         24624         24624
 MEMORY| Cached                 690472        690472        690472        690472
 MEMORY| Slab                  1580136       1580136       1580136       1580136
 MEMORY| SReclaimable           106284        106284        106284        106284
 MEMORY| MemLikelyFree       239624128     239624128     239624128     239624128


 *** Fundamental physical constants (SI units) ***

 *** Literature: B. J. Mohr and B. N. Taylor,
 ***             CODATA recommended values of the fundamental physical
 ***             constants: 2006, Web Version 5.1
 ***             http://physics.nist.gov/constants

 Speed of light in vacuum [m/s]                             2.99792458000000E+08
 Magnetic constant or permeability of vacuum [N/A**2]       1.25663706143592E-06
 Electric constant or permittivity of vacuum [F/m]          8.85418781762039E-12
 Planck constant (h) [J*s]                                  6.62606896000000E-34
 Planck constant (h-bar) [J*s]                              1.05457162825177E-34
 Elementary charge [C]                                      1.60217648700000E-19
 Electron mass [kg]                                         9.10938215000000E-31
 Electron g factor [ ]                                     -2.00231930436220E+00
 Proton mass [kg]                                           1.67262163700000E-27
 Fine-structure constant                                    7.29735253760000E-03
 Rydberg constant [1/m]                                     1.09737315685270E+07
 Avogadro constant [1/mol]                                  6.02214179000000E+23
 Boltzmann constant [J/K]                                   1.38065040000000E-23
 Atomic mass unit [kg]                                      1.66053878200000E-27
 Bohr radius [m]                                            5.29177208590000E-11

 *** Conversion factors ***

 [u] -> [a.u.]                                              1.82288848426455E+03
 [Angstrom] -> [Bohr] = [a.u.]                              1.88972613288564E+00
 [a.u.] = [Bohr] -> [Angstrom]                              5.29177208590000E-01
 [a.u.] -> [s]                                              2.41888432650478E-17
 [a.u.] -> [fs]                                             2.41888432650478E-02
 [a.u.] -> [J]                                              4.35974393937059E-18
 [a.u.] -> [N]                                              8.23872205491840E-08
 [a.u.] -> [K]                                              3.15774647902944E+05
 [a.u.] -> [kJ/mol]                                         2.62549961709828E+03
 [a.u.] -> [kcal/mol]                                       6.27509468713739E+02
 [a.u.] -> [Pa]                                             2.94210107994716E+13
 [a.u.] -> [bar]                                            2.94210107994716E+08
 [a.u.] -> [atm]                                            2.90362800883016E+08
 [a.u.] -> [eV]                                             2.72113838565563E+01
 [a.u.] -> [Hz]                                             6.57968392072181E+15
 [a.u.] -> [1/cm] (wave numbers)                            2.19474631370540E+05
 [a.u./Bohr**2] -> [1/cm]                                   5.14048714338585E+03
 

 CELL_TOP| Volume [angstrom^3]:                                       983.249569
 CELL_TOP| Vector a [angstrom     7.012     0.000     0.000   |a| =     7.011596
 CELL_TOP| Vector b [angstrom     0.000     7.012     0.000   |b| =     7.011596
 CELL_TOP| Vector c [angstrom     0.000     0.000    20.000   |c| =    20.000000
 CELL_TOP| Angle (b,c), alpha [degree]:                                90.000000
 CELL_TOP| Angle (a,c), beta  [degree]:                                90.000000
 CELL_TOP| Angle (a,b), gamma [degree]:                                90.000000
 CELL_TOP| Numerically orthorhombic:                                         YES
 CELL_TOP| Periodicity                                                       XYZ

 GENERATE|  Preliminary Number of Bonds generated:                             0
 GENERATE|  Achieved consistency in connectivity generation.

 CELL| Volume [angstrom^3]:                                           983.249569
 CELL| Vector a [angstrom]:       7.012     0.000     0.000   |a| =     7.011596
 CELL| Vector b [angstrom]:       0.000     7.012     0.000   |b| =     7.011596
 CELL| Vector c [angstrom]:       0.000     0.000    20.000   |c| =    20.000000
 CELL| Angle (b,c), alpha [degree]:                                    90.000000
 CELL| Angle (a,c), beta  [degree]:                                    90.000000
 CELL| Angle (a,b), gamma [degree]:                                    90.000000
 CELL| Numerically orthorhombic:                                             YES
 CELL| Periodicity                                                           XYZ

 CELL_REF| Volume [angstrom^3]:                                       983.249569
 CELL_REF| Vector a [angstrom     7.012     0.000     0.000   |a| =     7.011596
 CELL_REF| Vector b [angstrom     0.000     7.012     0.000   |b| =     7.011596
 CELL_REF| Vector c [angstrom     0.000     0.000    20.000   |c| =    20.000000
 CELL_REF| Angle (b,c), alpha [degree]:                                90.000000
 CELL_REF| Angle (a,c), beta  [degree]:                                90.000000
 CELL_REF| Angle (a,b), gamma [degree]:                                90.000000
 CELL_REF| Numerically orthorhombic:                                         YES
 CELL_REF| Periodicity                                                       XYZ

 *** WARNING in cryssym.F:165 :: Symmetry library SPGLIB not available ***


 *******************************************************************************
                                    Kpoints
 *******************************************************************************
 BRILLOUIN| K-point scheme                                        Monkhorst-Pack
 BRILLOUIN| K-Point grid                                             4    4    1
 BRILLOUIN| Accuracy in Symmetry determination                      0.100000E-05
 BRILLOUIN| K-Point point group symmetrization                               OFF
 BRILLOUIN| Wavefunction type                                            COMPLEX
 BRILLOUIN| List of Kpoints [2 Pi/Bohr]                                        8
 BRILLOUIN| Number           Weight            X              Y              Z
 BRILLOUIN|     1           0.12500       -0.37500       -0.37500        0.00000
 BRILLOUIN|     2           0.12500       -0.37500       -0.12500        0.00000
 BRILLOUIN|     3           0.12500       -0.37500        0.12500        0.00000
 BRILLOUIN|     4           0.12500       -0.37500        0.37500        0.00000
 BRILLOUIN|     5           0.12500       -0.12500       -0.37500        0.00000
 BRILLOUIN|     6           0.12500       -0.12500       -0.12500        0.00000
 BRILLOUIN|     7           0.12500       -0.12500        0.12500        0.00000
 BRILLOUIN|     8           0.12500       -0.12500        0.37500        0.00000
 *******************************************************************************

 *******************************************************************************
 *******************************************************************************
 **                                                                           **
 **     #####                         ##              ##                      **
 **    ##   ##            ##          ##              ##                      **
 **   ##     ##                       ##            ######                    **
 **   ##     ##  ##   ##  ##   #####  ##  ##   ####   ##    #####    #####    **
 **   ##     ##  ##   ##  ##  ##      ## ##   ##      ##   ##   ##  ##   ##   **
 **   ##  ## ##  ##   ##  ##  ##      ####     ###    ##   ######   ######    **
 **    ##  ###   ##   ##  ##  ##      ## ##      ##   ##   ##       ##        **
 **     #######   #####   ##   #####  ##  ##  ####    ##    #####   ##        **
 **           ##                                                    ##        **
 **                                                                           **
 **                                                ... make the atoms dance   **
 **                                                                           **
 **            Copyright (C) by CP2K developers group (2000-2023)             **
 **                      J. Chem. Phys. 152, 194103 (2020)                    **
 **                                                                           **
 *******************************************************************************

 *** WARNING in qs_environment.F:1456 :: Number of electrons will be ***
 *** overwritten by NELEC_ALPHA and NELEC_BETA, multiplicity will be ***
 *** ignored.                                                        ***

 Number of electrons should be                                               576
 Sum of NELEC_ALPHA and NELEC_BETA is                                    576.000

 *** WARNING in qs_environment.F:1488 :: NELEC_ALPHA is not an integer, ***
 *** many features will not be supported.                               ***


 *** WARNING in qs_environment.F:1500 :: NELEC_BETA is not an integer, ***
 *** many features will not be supported.                              ***


 *** WARNING in qs_environment.F:1532 :: More ADDED_MOs requested for beta ***
 *** spin than available.                                                  ***


 *** WARNING in qs_environment.F:1548 :: More added MOs requested than     ***
 *** available. The full set of unoccupied MOs will be used. Use           ***
 *** 'ADDED_MOS -1' to always use all available MOs and to get rid of this ***
 *** warning.                                                              ***


 DFT| Spin unrestricted (spin-polarized) Kohn-Sham calculation               UKS
 DFT| Multiplicity                                                             1
 DFT| Number of spin states                                                    2
 DFT| Charge                                                                   0
 DFT| Self-interaction correction (SIC)                                       NO
 DFT| Cutoffs: density                                              1.000000E-10
 DFT|          gradient                                             1.000000E-10
 DFT|          tau                                                  1.000000E-10
 DFT|          cutoff_smoothing_range                               0.000000E+00
 DFT| XC density smoothing                                                  NONE
 DFT| XC derivatives                                                          PW

 FUNCTIONAL| PBE:
 FUNCTIONAL| J.P.Perdew, K.Burke, M.Ernzerhof, Phys. Rev. Letter, vol. 77, n 18,
 FUNCTIONAL|  pp. 3865-3868, (1996){spin polarized}                             

 vdW POTENTIAL|                                                   Pair Potential
 vdW POTENTIAL|          DFT-D3 (Version 3.1)
 vdW POTENTIAL|          Potential Form: S. Grimme et al, JCP 132: 154104 (2010)
 vdW POTENTIAL|          Zero Damping
 vdW POTENTIAL|          Cutoff Radius [Bohr]:                             20.00
 vdW POTENTIAL|          s6 Scaling Factor:                               1.0000
 vdW POTENTIAL|          sr6 Scaling Factor:                              1.2170
 vdW POTENTIAL|          s8 Scaling Factor:                               0.7220
 vdW POTENTIAL|          Cutoff for CN calculation:                   0.1000E-05

 QS| Method:                                                                 GPW
 QS| Density plane wave grid type                        NON-SPHERICAL FULLSPACE
 QS| Number of grid levels:                                                    5
 QS| Density cutoff [a.u.]:                                                300.0
 QS| Multi grid cutoff [a.u.]: 1) grid level                               300.0
 QS|                           2) grid level                               100.0
 QS|                           3) grid level                                33.3
 QS|                           4) grid level                                11.1
 QS|                           5) grid level                                 3.7
 QS| Grid level progression factor:                                          3.0
 QS| Relative density cutoff [a.u.]:                                        30.0
 QS| Interaction thresholds: eps_pgf_orb:                                1.0E-06
 QS|                         eps_filter_matrix:                          0.0E+00
 QS|                         eps_core_charge:                            1.0E-14
 QS|                         eps_rho_gspace:                             1.0E-12
 QS|                         eps_rho_rspace:                             1.0E-12
 QS|                         eps_gvg_rspace:                             1.0E-06
 QS|                         eps_ppl:                                    1.0E-02
 QS|                         eps_ppnl:                                   1.0E-08


 ATOMIC KIND INFORMATION

  1. Atomic kind: Ni_i                                  Number of atoms:      16

     Orbital Basis Set                                        DZVP-MOLOPT-SR-GTH

       Number of orbital shell sets:                                           1
       Number of orbital shells:                                               8
       Number of primitive Cartesian functions:                                6
       Number of Cartesian basis functions:                                   31
       Number of spherical basis functions:                                   26
       Norm type:                                                              2

       Normalised Cartesian orbitals:

                        Set   Shell   Orbital            Exponent    Coefficient

                          1       1    2s               10.077428      -0.684558
                                                         5.847736      -0.844524
                                                         2.494033       1.088856
                                                         0.988355       0.395503
                                                         0.344978       0.010224
                                                         0.099466      -0.003250

                          1       2    3s               10.077428       0.096747
                                                         5.847736       0.162504
                                                         2.494033      -0.297192
                                                         0.988355      -0.319752
                                                         0.344978       0.088318
                                                         0.099466       0.118587

                          1       3    4s               10.077428       0.036437
                                                         5.847736      -0.381480
                                                         2.494033       0.003759
                                                         0.988355      -1.048256
                                                         0.344978       0.855825
                                                         0.099466      -0.176350

                          1       4    3px              10.077428      -3.133913
                                                         5.847736       3.027656
                                                         2.494033       2.353227
                                                         0.988355       0.554184
                                                         0.344978       0.019462
                                                         0.099466      -0.000291
                          1       4    3py              10.077428      -3.133913
                                                         5.847736       3.027656
                                                         2.494033       2.353227
                                                         0.988355       0.554184
                                                         0.344978       0.019462
                                                         0.099466      -0.000291
                          1       4    3pz              10.077428      -3.133913
                                                         5.847736       3.027656
                                                         2.494033       2.353227
                                                         0.988355       0.554184
                                                         0.344978       0.019462
                                                         0.099466      -0.000291

                          1       5    4px              10.077428      -0.112729
                                                         5.847736      -0.114008
                                                         2.494033      -0.347303
                                                         0.988355      -0.110323
                                                         0.344978       0.154096
                                                         0.099466       0.058386
                          1       5    4py              10.077428      -0.112729
                                                         5.847736      -0.114008
                                                         2.494033      -0.347303
                                                         0.988355      -0.110323
                                                         0.344978       0.154096
                                                         0.099466       0.058386
                          1       5    4pz              10.077428      -0.112729
                                                         5.847736      -0.114008
                                                         2.494033      -0.347303
                                                         0.988355      -0.110323
                                                         0.344978       0.154096
                                                         0.099466       0.058386

                          1       6    4dx2             10.077428       8.232726
                                                         5.847736       9.105758
                                                         2.494033       2.849835
                                                         0.988355       0.554319
                                                         0.344978       0.067245
                                                         0.099466       0.001940
                          1       6    4dxy             10.077428      14.259500
                                                         5.847736      15.771636
                                                         2.494033       4.936060
                                                         0.988355       0.960109
                                                         0.344978       0.116472
                                                         0.099466       0.003360
                          1       6    4dxz             10.077428      14.259500
                                                         5.847736      15.771636
                                                         2.494033       4.936060
                                                         0.988355       0.960109
                                                         0.344978       0.116472
                                                         0.099466       0.003360
                          1       6    4dy2             10.077428       8.232726
                                                         5.847736       9.105758
                                                         2.494033       2.849835
                                                         0.988355       0.554319
                                                         0.344978       0.067245
                                                         0.099466       0.001940
                          1       6    4dyz             10.077428      14.259500
                                                         5.847736      15.771636
                                                         2.494033       4.936060
                                                         0.988355       0.960109
                                                         0.344978       0.116472
                                                         0.099466       0.003360
                          1       6    4dz2             10.077428       8.232726
                                                         5.847736       9.105758
                                                         2.494033       2.849835
                                                         0.988355       0.554319
                                                         0.344978       0.067245
                                                         0.099466       0.001940

                          1       7    5dx2             10.077428      -2.715373
                                                         5.847736      -4.020640
                                                         2.494033      -1.397569
                                                         0.988355      -0.076143
                                                         0.344978       0.033435
                                                         0.099466       0.026032
                          1       7    5dxy             10.077428      -4.703164
                                                         5.847736      -6.963952
                                                         2.494033      -2.420661
                                                         0.988355      -0.131883
                                                         0.344978       0.057911
                                                         0.099466       0.045088
                          1       7    5dxz             10.077428      -4.703164
                                                         5.847736      -6.963952
                                                         2.494033      -2.420661
                                                         0.988355      -0.131883
                                                         0.344978       0.057911
                                                         0.099466       0.045088
                          1       7    5dy2             10.077428      -2.715373
                                                         5.847736      -4.020640
                                                         2.494033      -1.397569
                                                         0.988355      -0.076143
                                                         0.344978       0.033435
                                                         0.099466       0.026032
                          1       7    5dyz             10.077428      -4.703164
                                                         5.847736      -6.963952
                                                         2.494033      -2.420661
                                                         0.988355      -0.131883
                                                         0.344978       0.057911
                                                         0.099466       0.045088
                          1       7    5dz2             10.077428      -2.715373
                                                         5.847736      -4.020640
                                                         2.494033      -1.397569
                                                         0.988355      -0.076143
                                                         0.344978       0.033435
                                                         0.099466       0.026032

                          1       8    5fx3             10.077428      -0.467694
                                                         5.847736       0.618100
                                                         2.494033       0.066069
                                                         0.988355       0.262898
                                                         0.344978       0.004720
                                                         0.099466       0.007748
                          1       8    5fx2y            10.077428      -1.045795
                                                         5.847736       1.382114
                                                         2.494033       0.147734
                                                         0.988355       0.587859
                                                         0.344978       0.010555
                                                         0.099466       0.017325
                          1       8    5fx2z            10.077428      -1.045795
                                                         5.847736       1.382114
                                                         2.494033       0.147734
                                                         0.988355       0.587859
                                                         0.344978       0.010555
                                                         0.099466       0.017325
                          1       8    5fxy2            10.077428      -1.045795
                                                         5.847736       1.382114
                                                         2.494033       0.147734
                                                         0.988355       0.587859
                                                         0.344978       0.010555
                                                         0.099466       0.017325
                          1       8    5fxyz            10.077428      -1.811371
                                                         5.847736       2.393892
                                                         2.494033       0.255883
                                                         0.988355       1.018201
                                                         0.344978       0.018282
                                                         0.099466       0.030008
                          1       8    5fxz2            10.077428      -1.045795
                                                         5.847736       1.382114
                                                         2.494033       0.147734
                                                         0.988355       0.587859
                                                         0.344978       0.010555
                                                         0.099466       0.017325
                          1       8    5fy3             10.077428      -0.467694
                                                         5.847736       0.618100
                                                         2.494033       0.066069
                                                         0.988355       0.262898
                                                         0.344978       0.004720
                                                         0.099466       0.007748
                          1       8    5fy2z            10.077428      -1.045795
                                                         5.847736       1.382114
                                                         2.494033       0.147734
                                                         0.988355       0.587859
                                                         0.344978       0.010555
                                                         0.099466       0.017325
                          1       8    5fyz2            10.077428      -1.045795
                                                         5.847736       1.382114
                                                         2.494033       0.147734
                                                         0.988355       0.587859
                                                         0.344978       0.010555
                                                         0.099466       0.017325
                          1       8    5fz3             10.077428      -0.467694
                                                         5.847736       0.618100
                                                         2.494033       0.066069
                                                         0.988355       0.262898
                                                         0.344978       0.004720
                                                         0.099466       0.007748

       Atomic covalent radius [Angstrom]:                                  1.150

       Atomic van der Waals radius [Angstrom]:                             1.630

     GTH Potential information for                                   GTH-PBE-q18

       Description:                       Goedecker-Teter-Hutter pseudopotential
                                           Goedecker et al., PRB 54, 1703 (1996)
                                          Hartwigsen et al., PRB 58, 3641 (1998)
                                                      Krack, TCA 114, 145 (2005)

       Gaussian exponent of the core charge distribution:               4.081633
       Electronic configuration (s p d ...):                           4   6   8

       Parameters of the local part of the GTH pseudopotential:

                          rloc        C1          C2          C3          C4
                        0.350000    2.102166    0.648484

       Parameters of the non-local part of the GTH pseudopotential:

                   l      r(l)      h(i,j,l)

                   0    0.261295    0.622658    9.970227
                                    9.970227  -12.871507
                   1    0.224253  -11.142708   12.429566
                                   12.429566  -14.706861
                   2    0.215348  -12.628146

  2. Atomic kind: Ni_b                                  Number of atoms:      16

     Orbital Basis Set                                        DZVP-MOLOPT-SR-GTH

       Number of orbital shell sets:                                           1
       Number of orbital shells:                                               8
       Number of primitive Cartesian functions:                                6
       Number of Cartesian basis functions:                                   31
       Number of spherical basis functions:                                   26
       Norm type:                                                              2

       Normalised Cartesian orbitals:

                        Set   Shell   Orbital            Exponent    Coefficient

                          1       1    2s               10.077428      -0.684558
                                                         5.847736      -0.844524
                                                         2.494033       1.088856
                                                         0.988355       0.395503
                                                         0.344978       0.010224
                                                         0.099466      -0.003250

                          1       2    3s               10.077428       0.096747
                                                         5.847736       0.162504
                                                         2.494033      -0.297192
                                                         0.988355      -0.319752
                                                         0.344978       0.088318
                                                         0.099466       0.118587

                          1       3    4s               10.077428       0.036437
                                                         5.847736      -0.381480
                                                         2.494033       0.003759
                                                         0.988355      -1.048256
                                                         0.344978       0.855825
                                                         0.099466      -0.176350

                          1       4    3px              10.077428      -3.133913
                                                         5.847736       3.027656
                                                         2.494033       2.353227
                                                         0.988355       0.554184
                                                         0.344978       0.019462
                                                         0.099466      -0.000291
                          1       4    3py              10.077428      -3.133913
                                                         5.847736       3.027656
                                                         2.494033       2.353227
                                                         0.988355       0.554184
                                                         0.344978       0.019462
                                                         0.099466      -0.000291
                          1       4    3pz              10.077428      -3.133913
                                                         5.847736       3.027656
                                                         2.494033       2.353227
                                                         0.988355       0.554184
                                                         0.344978       0.019462
                                                         0.099466      -0.000291

                          1       5    4px              10.077428      -0.112729
                                                         5.847736      -0.114008
                                                         2.494033      -0.347303
                                                         0.988355      -0.110323
                                                         0.344978       0.154096
                                                         0.099466       0.058386
                          1       5    4py              10.077428      -0.112729
                                                         5.847736      -0.114008
                                                         2.494033      -0.347303
                                                         0.988355      -0.110323
                                                         0.344978       0.154096
                                                         0.099466       0.058386
                          1       5    4pz              10.077428      -0.112729
                                                         5.847736      -0.114008
                                                         2.494033      -0.347303
                                                         0.988355      -0.110323
                                                         0.344978       0.154096
                                                         0.099466       0.058386

                          1       6    4dx2             10.077428       8.232726
                                                         5.847736       9.105758
                                                         2.494033       2.849835
                                                         0.988355       0.554319
                                                         0.344978       0.067245
                                                         0.099466       0.001940
                          1       6    4dxy             10.077428      14.259500
                                                         5.847736      15.771636
                                                         2.494033       4.936060
                                                         0.988355       0.960109
                                                         0.344978       0.116472
                                                         0.099466       0.003360
                          1       6    4dxz             10.077428      14.259500
                                                         5.847736      15.771636
                                                         2.494033       4.936060
                                                         0.988355       0.960109
                                                         0.344978       0.116472
                                                         0.099466       0.003360
                          1       6    4dy2             10.077428       8.232726
                                                         5.847736       9.105758
                                                         2.494033       2.849835
                                                         0.988355       0.554319
                                                         0.344978       0.067245
                                                         0.099466       0.001940
                          1       6    4dyz             10.077428      14.259500
                                                         5.847736      15.771636
                                                         2.494033       4.936060
                                                         0.988355       0.960109
                                                         0.344978       0.116472
                                                         0.099466       0.003360
                          1       6    4dz2             10.077428       8.232726
                                                         5.847736       9.105758
                                                         2.494033       2.849835
                                                         0.988355       0.554319
                                                         0.344978       0.067245
                                                         0.099466       0.001940

                          1       7    5dx2             10.077428      -2.715373
                                                         5.847736      -4.020640
                                                         2.494033      -1.397569
                                                         0.988355      -0.076143
                                                         0.344978       0.033435
                                                         0.099466       0.026032
                          1       7    5dxy             10.077428      -4.703164
                                                         5.847736      -6.963952
                                                         2.494033      -2.420661
                                                         0.988355      -0.131883
                                                         0.344978       0.057911
                                                         0.099466       0.045088
                          1       7    5dxz             10.077428      -4.703164
                                                         5.847736      -6.963952
                                                         2.494033      -2.420661
                                                         0.988355      -0.131883
                                                         0.344978       0.057911
                                                         0.099466       0.045088
                          1       7    5dy2             10.077428      -2.715373
                                                         5.847736      -4.020640
                                                         2.494033      -1.397569
                                                         0.988355      -0.076143
                                                         0.344978       0.033435
                                                         0.099466       0.026032
                          1       7    5dyz             10.077428      -4.703164
                                                         5.847736      -6.963952
                                                         2.494033      -2.420661
                                                         0.988355      -0.131883
                                                         0.344978       0.057911
                                                         0.099466       0.045088
                          1       7    5dz2             10.077428      -2.715373
                                                         5.847736      -4.020640
                                                         2.494033      -1.397569
                                                         0.988355      -0.076143
                                                         0.344978       0.033435
                                                         0.099466       0.026032

                          1       8    5fx3             10.077428      -0.467694
                                                         5.847736       0.618100
                                                         2.494033       0.066069
                                                         0.988355       0.262898
                                                         0.344978       0.004720
                                                         0.099466       0.007748
                          1       8    5fx2y            10.077428      -1.045795
                                                         5.847736       1.382114
                                                         2.494033       0.147734
                                                         0.988355       0.587859
                                                         0.344978       0.010555
                                                         0.099466       0.017325
                          1       8    5fx2z            10.077428      -1.045795
                                                         5.847736       1.382114
                                                         2.494033       0.147734
                                                         0.988355       0.587859
                                                         0.344978       0.010555
                                                         0.099466       0.017325
                          1       8    5fxy2            10.077428      -1.045795
                                                         5.847736       1.382114
                                                         2.494033       0.147734
                                                         0.988355       0.587859
                                                         0.344978       0.010555
                                                         0.099466       0.017325
                          1       8    5fxyz            10.077428      -1.811371
                                                         5.847736       2.393892
                                                         2.494033       0.255883
                                                         0.988355       1.018201
                                                         0.344978       0.018282
                                                         0.099466       0.030008
                          1       8    5fxz2            10.077428      -1.045795
                                                         5.847736       1.382114
                                                         2.494033       0.147734
                                                         0.988355       0.587859
                                                         0.344978       0.010555
                                                         0.099466       0.017325
                          1       8    5fy3             10.077428      -0.467694
                                                         5.847736       0.618100
                                                         2.494033       0.066069
                                                         0.988355       0.262898
                                                         0.344978       0.004720
                                                         0.099466       0.007748
                          1       8    5fy2z            10.077428      -1.045795
                                                         5.847736       1.382114
                                                         2.494033       0.147734
                                                         0.988355       0.587859
                                                         0.344978       0.010555
                                                         0.099466       0.017325
                          1       8    5fyz2            10.077428      -1.045795
                                                         5.847736       1.382114
                                                         2.494033       0.147734
                                                         0.988355       0.587859
                                                         0.344978       0.010555
                                                         0.099466       0.017325
                          1       8    5fz3             10.077428      -0.467694
                                                         5.847736       0.618100
                                                         2.494033       0.066069
                                                         0.988355       0.262898
                                                         0.344978       0.004720
                                                         0.099466       0.007748

       Atomic covalent radius [Angstrom]:                                  1.150

       Atomic van der Waals radius [Angstrom]:                             1.630

     GTH Potential information for                                   GTH-PBE-q18

       Description:                       Goedecker-Teter-Hutter pseudopotential
                                           Goedecker et al., PRB 54, 1703 (1996)
                                          Hartwigsen et al., PRB 58, 3641 (1998)
                                                      Krack, TCA 114, 145 (2005)

       Gaussian exponent of the core charge distribution:               4.081633
       Electronic configuration (s p d ...):                           4   6   8

       Parameters of the local part of the GTH pseudopotential:

                          rloc        C1          C2          C3          C4
                        0.350000    2.102166    0.648484

       Parameters of the non-local part of the GTH pseudopotential:

                   l      r(l)      h(i,j,l)

                   0    0.261295    0.622658    9.970227
                                    9.970227  -12.871507
                   1    0.224253  -11.142708   12.429566
                                   12.429566  -14.706861
                   2    0.215348  -12.628146


 MOLECULE KIND INFORMATION


 All atoms are their own molecule, skipping detailed information


 TOTAL NUMBERS AND MAXIMUM NUMBERS

  Total number of            - Atomic kinds:                                   2
                             - Atoms:                                         32
                             - Shell sets:                                    32
                             - Shells:                                       256
                             - Primitive Cartesian functions:                192
                             - Cartesian basis functions:                    992
                             - Spherical basis functions:                    832

  Maximum angular momentum of- Orbital basis functions:                        3
                             - Local part of the GTH pseudopotential:          2
                             - Non-local part of the GTH pseudopotential:      3


 MODULE QUICKSTEP: ATOMIC COORDINATES IN ANGSTROM

   Atom Kind Element         X             Y             Z       Z(eff)     Mass
      1    1 Ni   28      0.876298      0.876298      7.370500  18.0000  58.6934
      2    1 Ni   28      0.876298      4.382298      7.370500  18.0000  58.6934
      3    1 Ni   28      2.629298      2.629298      7.370500  18.0000  58.6934
      4    1 Ni   28      2.629298      6.135298      7.370500  18.0000  58.6934
      5    1 Ni   28      4.382298      0.876298      7.370500  18.0000  58.6934
      6    1 Ni   28      4.382298      4.382298      7.370500  18.0000  58.6934
      7    1 Ni   28      6.135298      2.629298      7.370500  18.0000  58.6934
      8    1 Ni   28      6.135298      6.135298      7.370500  18.0000  58.6934
      9    2 Ni   28      0.876298      2.629298      9.123500  18.0000  58.6934
     10    2 Ni   28      0.876298      6.135298      9.123500  18.0000  58.6934
     11    2 Ni   28      2.629298      0.876298      9.123500  18.0000  58.6934
     12    2 Ni   28      2.629298      4.382298      9.123500  18.0000  58.6934
     13    2 Ni   28      4.382298      2.629298      9.123500  18.0000  58.6934
     14    2 Ni   28      4.382298      6.135298      9.123500  18.0000  58.6934
     15    2 Ni   28      6.135298      0.876298      9.123500  18.0000  58.6934
     16    2 Ni   28      6.135298      4.382298      9.123500  18.0000  58.6934
     17    2 Ni   28      0.876298      0.876298     10.876500  18.0000  58.6934
     18    2 Ni   28      0.876298      4.382298     10.876500  18.0000  58.6934
     19    2 Ni   28      2.629298      2.629298     10.876500  18.0000  58.6934
     20    2 Ni   28      2.629298      6.135298     10.876500  18.0000  58.6934
     21    2 Ni   28      4.382298      0.876298     10.876500  18.0000  58.6934
     22    2 Ni   28      4.382298      4.382298     10.876500  18.0000  58.6934
     23    2 Ni   28      6.135298      2.629298     10.876500  18.0000  58.6934
     24    2 Ni   28      6.135298      6.135298     10.876500  18.0000  58.6934
     25    1 Ni   28      0.876298      2.629298     12.629500  18.0000  58.6934
     26    1 Ni   28      0.876298      6.135298     12.629500  18.0000  58.6934
     27    1 Ni   28      2.629298      0.876298     12.629500  18.0000  58.6934
     28    1 Ni   28      2.629298      4.382298     12.629500  18.0000  58.6934
     29    1 Ni   28      4.382298      2.629298     12.629500  18.0000  58.6934
     30    1 Ni   28      4.382298      6.135298     12.629500  18.0000  58.6934
     31    1 Ni   28      6.135298      0.876298     12.629500  18.0000  58.6934
     32    1 Ni   28      6.135298      4.382298     12.629500  18.0000  58.6934



 SCF PARAMETERS         Density guess:                                    ATOMIC
                        --------------------------------------------------------
                        max_scf:                                             500
                        max_scf_history:                                       0
                        max_diis:                                              4
                        --------------------------------------------------------
                        eps_scf:                                        1.00E-04
                        eps_scf_history:                                0.00E+00
                        eps_diis:                                       1.00E-01
                        eps_eigval:                                     1.00E-05
                        --------------------------------------------------------
                        level_shift [a.u.]:                             0.000000
                        added MOs                                       534  553
                        --------------------------------------------------------
                        Mixing method:                            BROYDEN_MIXING
                                                charge density mixing in g-space
                        --------------------------------------------------------
                        Smear method:                                FERMI_DIRAC
                        Electronic temperature [K]:                       2000.0
                        Electronic temperature [a.u.]:                  6.33E-03
                        Accuracy threshold:                             1.00E-10
                        --------------------------------------------------------
                        No outer SCF

 PW_GRID| Information for grid number                                          1
 PW_GRID| Grid distributed over                                   128 processors
 PW_GRID| Real space group dimensions                                     8   16
 PW_GRID| the grid is blocked:                                               YES
 PW_GRID| Cutoff [a.u.]                                                    300.0
 PW_GRID| spherical cutoff:                                                   NO
 PW_GRID|   Bounds   1            -54      53                Points:         108
 PW_GRID|   Bounds   2            -54      53                Points:         108
 PW_GRID|   Bounds   3           -150     149                Points:         300
 PW_GRID| Volume element (a.u.^3)  0.1896E-02     Volume (a.u.^3)      6635.2971
 PW_GRID| Grid span                                                    FULLSPACE
 PW_GRID|   Distribution                         Average         Max         Min
 PW_GRID|   G-Vectors                            27337.5       28728       25272
 PW_GRID|   G-Rays                                 253.1         266         234
 PW_GRID|   Real Space Points                    27337.5       28728       25272

 PW_GRID| Information for grid number                                          2
 PW_GRID| Number of the reference grid                                         1
 PW_GRID| Grid distributed over                                   128 processors
 PW_GRID| Real space group dimensions                                     8   16
 PW_GRID| the grid is blocked:                                                NO
 PW_GRID| Cutoff [a.u.]                                                    100.0
 PW_GRID| spherical cutoff:                                                   NO
 PW_GRID|   Bounds   1            -30      29                Points:          60
 PW_GRID|   Bounds   2            -30      29                Points:          60
 PW_GRID|   Bounds   3            -90      89                Points:         180
 PW_GRID| Volume element (a.u.^3)  0.1024E-01     Volume (a.u.^3)      6635.2971
 PW_GRID| Grid span                                                    FULLSPACE
 PW_GRID|   Distribution                         Average         Max         Min
 PW_GRID|   G-Vectors                             5062.5       15960           0
 PW_GRID|   G-Rays                                  84.4         266           0
 PW_GRID|   Real Space Points                     5062.5        5760        3780

 PW_GRID| Information for grid number                                          3
 PW_GRID| Number of the reference grid                                         1
 PW_GRID| Grid distributed over                                   128 processors
 PW_GRID| Real space group dimensions                                     8   16
 PW_GRID| the grid is blocked:                                                NO
 PW_GRID| Cutoff [a.u.]                                                     33.3
 PW_GRID| spherical cutoff:                                                   NO
 PW_GRID|   Bounds   1            -18      17                Points:          36
 PW_GRID|   Bounds   2            -18      17                Points:          36
 PW_GRID|   Bounds   3            -50      49                Points:         100
 PW_GRID| Volume element (a.u.^3)  0.5120E-01     Volume (a.u.^3)      6635.2971
 PW_GRID| Grid span                                                    FULLSPACE
 PW_GRID|   Distribution                         Average         Max         Min
 PW_GRID|   G-Vectors                             1012.5        9576           0
 PW_GRID|   G-Rays                                  28.1         266           0
 PW_GRID|   Real Space Points                     1012.5        1500         800

 PW_GRID| Information for grid number                                          4
 PW_GRID| Number of the reference grid                                         1
 PW_GRID| Grid distributed over                                   128 processors
 PW_GRID| Real space group dimensions                                     8   16
 PW_GRID| the grid is blocked:                                                NO
 PW_GRID| Cutoff [a.u.]                                                     11.1
 PW_GRID| spherical cutoff:                                                   NO
 PW_GRID|   Bounds   1            -10       9                Points:          20
 PW_GRID|   Bounds   2            -10       9                Points:          20
 PW_GRID|   Bounds   3            -30      29                Points:          60
 PW_GRID| Volume element (a.u.^3)  0.2765         Volume (a.u.^3)      6635.2971
 PW_GRID| Grid span                                                    FULLSPACE
 PW_GRID|   Distribution                         Average         Max         Min
 PW_GRID|   G-Vectors                              187.5        3800           0
 PW_GRID|   G-Rays                                   9.4         190           0
 PW_GRID|   Real Space Points                      187.5         360         120

 PW_GRID| Information for grid number                                          5
 PW_GRID| Number of the reference grid                                         1
 PW_GRID| Grid distributed over                                   128 processors
 PW_GRID| Real space group dimensions                                     8   16
 PW_GRID| the grid is blocked:                                                NO
 PW_GRID| Cutoff [a.u.]                                                      3.7
 PW_GRID| spherical cutoff:                                                   NO
 PW_GRID|   Bounds   1             -6       5                Points:          12
 PW_GRID|   Bounds   2             -6       5                Points:          12
 PW_GRID|   Bounds   3            -18      17                Points:          36
 PW_GRID| Volume element (a.u.^3)   1.280         Volume (a.u.^3)      6635.2971
 PW_GRID| Grid span                                                    FULLSPACE
 PW_GRID|   Distribution                         Average         Max         Min
 PW_GRID|   G-Vectors                               40.5        1296           0
 PW_GRID|   G-Rays                                   3.4         108           0
 PW_GRID|   Real Space Points                       40.5          72           0

 POISSON| Solver                                                        PERIODIC
 POISSON| Periodicity                                                        XYZ

 RS_GRID| Information for grid number                                          1
 RS_GRID|   Bounds   1            -54      53                Points:         108
 RS_GRID|   Bounds   2            -54      53                Points:         108
 RS_GRID|   Bounds   3           -150     149                Points:         300
 RS_GRID| Real space distribution over                                  8 groups
 RS_GRID| Real space distribution along direction                              2
 RS_GRID| Border size                                                         28
 RS_GRID| Real space distribution over                                 16 groups
 RS_GRID| Real space distribution along direction                              3
 RS_GRID| Border size                                                         28
 RS_GRID|   Distribution                         Average         Max         Min
 RS_GRID|   Planes                                  69.5          70          69
 RS_GRID|   Distribution                         Average         Max         Min
 RS_GRID|   Planes                                  74.8          75          74

 RS_GRID| Information for grid number                                          2
 RS_GRID|   Bounds   1            -30      29                Points:          60
 RS_GRID|   Bounds   2            -30      29                Points:          60
 RS_GRID|   Bounds   3            -90      89                Points:         180
 RS_GRID| Real space fully replicated
 RS_GRID| Group size                                                           1

 RS_GRID| Information for grid number                                          3
 RS_GRID|   Bounds   1            -18      17                Points:          36
 RS_GRID|   Bounds   2            -18      17                Points:          36
 RS_GRID|   Bounds   3            -50      49                Points:         100
 RS_GRID| Real space fully replicated
 RS_GRID| Group size                                                           1

 RS_GRID| Information for grid number                                          4
 RS_GRID|   Bounds   1            -10       9                Points:          20
 RS_GRID|   Bounds   2            -10       9                Points:          20
 RS_GRID|   Bounds   3            -30      29                Points:          60
 RS_GRID| Real space fully replicated
 RS_GRID| Group size                                                           1

 RS_GRID| Information for grid number                                          5
 RS_GRID|   Bounds   1             -6       5                Points:          12
 RS_GRID|   Bounds   2             -6       5                Points:          12
 RS_GRID|   Bounds   3            -18      17                Points:          36
 RS_GRID| Real space fully replicated
 RS_GRID| Group size                                                           1

 Spin 1

 Number of electrons:                                                        297.520
 Number of occupied orbitals:                                                298
 Number of molecular orbitals:                                               832

 Spin 2

 Number of electrons:                                                        278.480
 Number of occupied orbitals:                                                279
 Number of molecular orbitals:                                               832

 Number of orbital functions:                                                832
 Number of independent orbital functions:                                    832

 Extrapolation method: initial_guess

 Atomic guess: The first density matrix is obtained in terms of atomic orbitals
               and electronic configurations assigned to each atomic kind

 Guess for atomic kind: Ni_i

 Electronic structure
    Total number of core electrons                                         10.00
    Total number of valence electrons                                      18.00
    Total number of electrons                                              28.00
    Multiplicity                                                         doublet
    Alpha Electrons
    S   [  1.00  1.00] 1.00  1.00
    P   [  3.00] 3.00
    D      4.35
    Beta Electrons
    S   [  1.00  1.00] 1.00  1.00
    P   [  3.00] 3.00
    D      3.65


 *******************************************************************************
                  Iteration          Convergence                     Energy [au]
 *******************************************************************************
                          1         1.51729                    -167.067424631347
                          2         15.3902                    -156.642654318634
                          3         2.33433                    -168.319355313541
                          4        0.206730                    -168.609905008081
                          5        0.814175E-01                -168.612873080494
                          6        0.173318E-01                -168.613470181066
                          7        0.290432E-02                -168.613543571401
                          8        0.311825E-02                -168.613543401474
                          9        0.179670E-03                -168.613544404477
                         10        0.169386E-02                -168.613544207811
                         11        0.473341E-03                -168.613544360253
                         12        0.165417E-03                -168.613544400419
                         13        0.162622E-03                -168.613544401489
                         14        0.158325E-03                -168.613544403900
                         15        0.177007E-03                -168.613544402509
                         16        0.138916E-03                -168.613544404900
                         17        0.934549E-04                -168.613544406149
                         18        0.119916E-03                -168.613544405789
                         19        0.131607E-03                -168.613544405591
                         20        0.169309E-03                -168.613544404773
                         21        0.551337E-04                -168.613544406656
                         22        0.382664E-04                -168.613544406759
                         23        0.378942E-04                -168.613544406765
                         24        0.381089E-04                -168.613544406765
                         25        0.390835E-04                -168.613544406759
                         26        0.308614E-04                -168.613544406841
                         27        0.205044E-04                -168.613544406892
                         28        0.200942E-04                -168.613544406893
                         29        0.199375E-04                -168.613544406893
                         30        0.200198E-04                -168.613544406894
                         31        0.161325E-04                -168.613544406903
                         32        0.330614E-05                -168.613544406925
                         33        0.238713E-05                -168.613544406926
                         34        0.265439E-05                -168.613544406926
                         35        0.277073E-05                -168.613544406926
                         36        0.335175E-05                -168.613544406926
                         37        0.148809E-05                -168.613544406927
                         38        0.133447E-05                -168.613544406927
                         39        0.918735E-06                -168.613544406927

 Energy components [Hartree]           Total Energy ::         -168.613544406927
                                        Band Energy ::          -26.569761966525
                                     Kinetic Energy ::           97.306723392622
                                   Potential Energy ::         -265.920267799548
                                      Virial (-V/T) ::            2.732804666812
                                        Core Energy ::         -299.567979157577
                                          XC Energy ::          -16.227189041387
                                     Coulomb Energy ::          147.181623792037
                       Total Pseudopotential Energy ::         -396.961043505191
                       Local Pseudopotential Energy ::         -362.648291121960
                    Nonlocal Pseudopotential Energy ::          -34.312752383230
                                        Confinement ::            0.863409549921

 Orbital energies  State     Spin  L     Occupation   Energy[a.u.]    Energy[eV]

                       1    alpha  0          1.000      -4.172666   -113.544030
                       2    alpha  0          1.000      -0.181431     -4.936983
                       1     beta  0          1.000      -4.140640   -112.672541
                       2     beta  0          1.000      -0.176372     -4.799339

                       1    alpha  1          3.000      -2.578739    -70.171064
                       1     beta  1          3.000      -2.547579    -69.323162

                       1    alpha  2          4.350      -0.327039     -8.899191
                       1     beta  2          3.650      -0.300569     -8.178887


 Total Electron Density at R=0:                                         0.030422

 Guess for atomic kind: Ni_b

 Electronic structure
    Total number of core electrons                                         10.00
    Total number of valence electrons                                      18.00
    Total number of electrons                                              28.00
    Multiplicity                                                         singlet
    Alpha Electrons
    S   [  1.00  1.00] 1.00  1.00
    P   [  3.00] 3.00
    D      4.25
    Beta Electrons
    S   [  1.00  1.00] 1.00  1.00
    P   [  3.00] 3.00
    D      3.75


 *******************************************************************************
                  Iteration          Convergence                     Energy [au]
 *******************************************************************************
                          1         1.51684                    -167.064913277923
                          2         14.9612                    -156.619514045343
                          3         2.25180                    -168.317226806108
                          4        0.188317                    -168.607844489424
                          5        0.703233E-01                -168.610686726790
                          6        0.120393E-01                -168.611146102785
                          7        0.612054E-02                -168.611178533859
                          8        0.537195E-02                -168.611178758096
                          9        0.106703E-02                -168.611181718197
                         10        0.262317E-02                -168.611181319150
                         11        0.966420E-03                -168.611181734185
                         12        0.160463E-03                -168.611181851681
                         13        0.142439E-03                -168.611181850798
                         14        0.112003E-03                -168.611181853236
                         15        0.164839E-03                -168.611181849347
                         16        0.227081E-04                -168.611181854262
                         17        0.395614E-04                -168.611181854139
                         18        0.393850E-04                -168.611181854200
                         19        0.242124E-04                -168.611181854264
                         20        0.212753E-04                -168.611181854269
                         21        0.864218E-05                -168.611181854302
                         22        0.843090E-05                -168.611181854304
                         23        0.549311E-05                -168.611181854307
                         24        0.561874E-05                -168.611181854309
                         25        0.505708E-05                -168.611181854308
                         26        0.246819E-06                -168.611181854311

 Energy components [Hartree]           Total Energy ::         -168.611181854311
                                        Band Energy ::          -26.568635472882
                                     Kinetic Energy ::           97.303533085933
                                   Potential Energy ::         -265.914714940245
                                      Virial (-V/T) ::            2.732837200325
                                        Core Energy ::         -299.566115598312
                                          XC Energy ::          -16.224485806690
                                     Coulomb Energy ::          147.179419550690
                       Total Pseudopotential Energy ::         -396.955989284946
                       Local Pseudopotential Energy ::         -362.644909537243
                    Nonlocal Pseudopotential Energy ::          -34.311079747704
                                        Confinement ::            0.863406007013

 Orbital energies  State     Spin  L     Occupation   Energy[a.u.]    Energy[eV]

                       1    alpha  0          1.000      -4.168117   -113.420226
                       2    alpha  0          1.000      -0.180695     -4.916947
                       1     beta  0          1.000      -4.145698   -112.810182
                       2     beta  0          1.000      -0.177154     -4.820613

                       1    alpha  1          3.000      -2.574312    -70.050600
                       1     beta  1          3.000      -2.552500    -69.457069

                       1    alpha  2          4.245      -0.323264     -8.796471
                       1     beta  2          3.755      -0.304734     -8.292236


 Total Electron Density at R=0:                                         0.030429

 Spin 1
 Re-scaling the density matrix to get the right number of electrons for spin 1
                  # Electrons              Trace(P)               Scaling factor
                        297.520             297.520                        1.000

 Spin 2
 Re-scaling the density matrix to get the right number of electrons for spin 2
                  # Electrons              Trace(P)               Scaling factor
                        278.480             278.480                        1.000


 SCF WAVEFUNCTION OPTIMIZATION

  Step     Update method      Time    Convergence         Total energy    Change
  ------------------------------------------------------------------------------
     1 NoMix/Diag. 0.80E-01    1.4     0.87319099     -5426.4426311751 -5.43E+03
     2 Broy./Diag. 0.80E-01    1.5     0.01452671     -5316.2714716939  1.10E+02
[...]
   117 Broy./Diag. 0.80E-01    1.5     0.00110791     -5417.3674631961 -3.76E-02
   118 Broy./Diag. 0.80E-01    1.5     0.00245186     -5417.3898368697 -2.24E-02
   119 Broy./Diag. 0.80E-01    1.5     0.00191617     -5417.4642210257 -7.44E-02
   120 Broy./Diag. 0.80E-01    1.5     0.00865264     -5417.5686829555 -1.04E-01
   121 Broy./Diag. 0.80E-01    1.5     0.00128644     -5417.6577166954 -8.90E-02
   122 Broy./Diag. 0.80E-01    1.5     0.00434677     -5417.6899287204 -3.22E-02
   123 Broy./Diag. 0.80E-01    1.5     0.00707553     -5417.7601519696 -7.02E-02
   124 Broy./Diag. 0.80E-01    1.5     0.00644322     -5417.7710891763 -1.09E-02
   125 Broy./Diag. 0.80E-01    1.5     0.00058220     -5417.6926934670  7.84E-02
   126 Broy./Diag. 0.80E-01    1.5     0.00612369     -5417.6797040844  1.30E-02
   127 Broy./Diag. 0.80E-01    1.5     0.00136559     -5417.6851333094 -5.43E-03
   128 Broy./Diag. 0.80E-01    1.5     0.00504853     -5417.6805502729  4.58E-03
   129 Broy./Diag. 0.80E-01    1.5     0.00457303     -5417.7108157126 -3.03E-02
   130 Broy./Diag. 0.80E-01    1.5     0.01174100     -5417.7230480371 -1.22E-02
   131 Broy./Diag. 0.80E-01    1.5     0.00330899     -5417.6898173813  3.32E-02
   132 Broy./Diag. 0.80E-01    1.5     0.00315936     -5417.7202404669 -3.04E-02
   133 Broy./Diag. 0.80E-01    1.5     0.01003267     -5417.7939391368 -7.37E-02
   134 Broy./Diag. 0.80E-01    1.5     0.00747733     -5417.7640871254  2.99E-02
   135 Broy./Diag. 0.80E-01    1.5     0.00675292     -5417.7948025712 -3.07E-02
   136 Broy./Diag. 0.80E-01    1.5     0.00172359     -5417.8078089673 -1.30E-02
   137 Broy./Diag. 0.80E-01    1.5     0.01131860     -5417.8096218922 -1.81E-03
   138 Broy./Diag. 0.80E-01    1.5     0.00500958     -5417.7073600450  1.02E-01
   139 Broy./Diag. 0.80E-01    1.5     0.00097823     -5417.6825919070  2.48E-02
   140 Broy./Diag. 0.80E-01    1.5     0.00552824     -5417.6687218278  1.39E-02
   141 Broy./Diag. 0.80E-01    1.5     0.00623486     -5417.6967973127 -2.81E-02
   142 Broy./Diag. 0.80E-01    1.5     0.00292025     -5417.6926979384  4.10E-03
   143 Broy./Diag. 0.80E-01    1.5     0.01293224     -5417.6452707437  4.74E-02
   144 Broy./Diag. 0.80E-01    1.5     0.04160970     -5417.7829360540 -1.38E-01
   145 Broy./Diag. 0.80E-01    1.5     0.01839833     -5417.6935801264  8.94E-02
   146 Broy./Diag. 0.80E-01    1.5     0.00401431     -5417.7783755567 -8.48E-02
   147 Broy./Diag. 0.80E-01    1.5     0.00142036     -5417.6346333375  1.44E-01
   148 Broy./Diag. 0.80E-01    1.5     0.01892539     -5417.6804911322 -4.59E-02
   149 Broy./Diag. 0.80E-01    1.5     0.02597974     -5417.7307188757 -5.02E-02
   150 Broy./Diag. 0.80E-01    1.5     0.01363894     -5417.6766190308  5.41E-02
   151 Broy./Diag. 0.80E-01    1.5     0.00762956     -5417.7606423208 -8.40E-02
   152 Broy./Diag. 0.80E-01    1.5     0.00179155     -5417.7111613125  4.95E-02
   153 Broy./Diag. 0.80E-01    1.5     0.00195111     -5417.7005194152  1.06E-02
   154 Broy./Diag. 0.80E-01    1.5     0.00058314     -5417.6589203333  4.16E-02
   155 Broy./Diag. 0.80E-01    1.5     0.00783257     -5417.6416969355  1.72E-02
   156 Broy./Diag. 0.80E-01    1.5     0.00934896     -5417.6928190324 -5.11E-02
   157 Broy./Diag. 0.80E-01    1.5     0.00561234     -5417.7271791919 -3.44E-02
   158 Broy./Diag. 0.80E-01    1.5     0.00673546     -5417.7180270265  9.15E-03
   159 Broy./Diag. 0.80E-01    1.5     0.00626019     -5417.6809554574  3.71E-02
   160 Broy./Diag. 0.80E-01    1.5     0.00689232     -5417.6264815130  5.45E-02
   161 Broy./Diag. 0.80E-01    1.5     0.00684731     -5417.6534055891 -2.69E-02
   162 Broy./Diag. 0.80E-01    1.5     0.00326809     -5417.7781587274 -1.25E-01
   163 Broy./Diag. 0.80E-01    1.5     0.00333626     -5417.8505661982 -7.24E-02
   164 Broy./Diag. 0.80E-01    1.5     0.00118015     -5417.8199335239  3.06E-02
   165 Broy./Diag. 0.80E-01    1.5     0.00647897     -5417.8040628114  1.59E-02
   166 Broy./Diag. 0.80E-01    1.5     0.00836123     -5417.8192981838 -1.52E-02
   167 Broy./Diag. 0.80E-01    1.5     0.01358364     -5417.7949059733  2.44E-02
   168 Broy./Diag. 0.80E-01    1.5     0.00570458     -5417.7986450879 -3.74E-03
   169 Broy./Diag. 0.80E-01    1.5     0.00100798     -5417.7901278652  8.52E-03
   170 Broy./Diag. 0.80E-01    1.5     0.00203540     -5417.7649616831  2.52E-02
   171 Broy./Diag. 0.80E-01    1.5     0.00619103     -5417.7551423612  9.82E-03
   172 Broy./Diag. 0.80E-01    1.5     0.00154654     -5417.7699204297 -1.48E-02
   173 Broy./Diag. 0.80E-01    1.5     0.00167173     -5417.7831686489 -1.32E-02
   174 Broy./Diag. 0.80E-01    1.5     0.00518730     -5417.8011408847 -1.80E-02
   175 Broy./Diag. 0.80E-01    1.5     0.00448773     -5417.7892215997  1.19E-02
   176 Broy./Diag. 0.80E-01    1.5     0.00079681     -5417.8129263496 -2.37E-02
   177 Broy./Diag. 0.80E-01    1.5     0.00539015     -5417.8001475546  1.28E-02
   178 Broy./Diag. 0.80E-01    1.5     0.00081550     -5417.7875023203  1.26E-02
   179 Broy./Diag. 0.80E-01    1.5     0.00114929     -5417.7748041315  1.27E-02
   180 Broy./Diag. 0.80E-01    1.5     0.00173162     -5417.7625330048  1.23E-02
   181 Broy./Diag. 0.80E-01    1.5     0.00935875     -5417.7453234929  1.72E-02
   182 Broy./Diag. 0.80E-01    1.5     0.00449127     -5417.7635809219 -1.83E-02
   183 Broy./Diag. 0.80E-01    1.5     0.00298677     -5417.6992442670  6.43E-02
   184 Broy./Diag. 0.80E-01    1.5     0.00980520     -5417.7139430185 -1.47E-02
   185 Broy./Diag. 0.80E-01    1.5     0.00636754     -5417.7281376035 -1.42E-02
   186 Broy./Diag. 0.80E-01    1.5     0.00204748     -5417.7032364058  2.49E-02
   187 Broy./Diag. 0.80E-01    1.5     0.00202346     -5417.7534467004 -5.02E-02
   188 Broy./Diag. 0.80E-01    1.5     0.00090583     -5417.7546941774 -1.25E-03
   189 Broy./Diag. 0.80E-01    1.5     0.00608723     -5417.7857206840 -3.10E-02
   190 Broy./Diag. 0.80E-01    1.5     0.00121009     -5417.7381926162  4.75E-02
   191 Broy./Diag. 0.80E-01    1.5     0.01332753     -5417.7486962591 -1.05E-02
   192 Broy./Diag. 0.80E-01    1.5     0.00820789     -5417.5601936463  1.89E-01
   193 Broy./Diag. 0.80E-01    1.5     0.03341323     -5417.6691810053 -1.09E-01
   194 Broy./Diag. 0.80E-01    1.5     0.02825392     -5417.4957227687  1.73E-01
   195 Broy./Diag. 0.80E-01    1.5     0.01501730     -5417.5246676188 -2.89E-02
   196 Broy./Diag. 0.80E-01    1.5     0.00677551     -5417.5998640483 -7.52E-02
   197 Broy./Diag. 0.80E-01    1.5     0.01229989     -5417.5425815657  5.73E-02
   198 Broy./Diag. 0.80E-01    1.5     0.00135293     -5417.5934062030 -5.08E-02
   199 Broy./Diag. 0.80E-01    1.5     0.01462614     -5417.5434723438  4.99E-02
   200 Broy./Diag. 0.80E-01    1.5     0.00814635     -5417.6802062075 -1.37E-01
   201 Broy./Diag. 0.80E-01    1.5     0.00529768     -5417.6881692893 -7.96E-03
   202 Broy./Diag. 0.80E-01    1.5     0.01742618     -5417.6337212417  5.44E-02
   203 Broy./Diag. 0.80E-01    1.5     0.00438424     -5417.6222908087  1.14E-02
   204 Broy./Diag. 0.80E-01    1.5     0.00527175     -5417.6296291097 -7.34E-03
   205 Broy./Diag. 0.80E-01    1.5     0.00180727     -5417.6155243828  1.41E-02
   206 Broy./Diag. 0.80E-01    1.5     0.00742745     -5417.6324843334 -1.70E-02
   207 Broy./Diag. 0.80E-01    1.5     0.00356337     -5417.6532460991 -2.08E-02
   208 Broy./Diag. 0.80E-01    1.5     0.00502840     -5417.6024692259  5.08E-02
   209 Broy./Diag. 0.80E-01    1.5     0.00593387     -5417.6153115968 -1.28E-02
   210 Broy./Diag. 0.80E-01    1.5     0.00196220     -5417.5934114702  2.19E-02
   211 Broy./Diag. 0.80E-01    1.5     0.00073672     -5417.6028049921 -9.39E-03
   212 Broy./Diag. 0.80E-01    1.5     0.00619525     -5417.6140830232 -1.13E-02
   213 Broy./Diag. 0.80E-01    1.5     0.00136395     -5417.6660735356 -5.20E-02
   214 Broy./Diag. 0.80E-01    1.5     0.00133201     -5417.6626966232  3.38E-03
   215 Broy./Diag. 0.80E-01    1.5     0.00441284     -5417.7154892037 -5.28E-02
   216 Broy./Diag. 0.80E-01    1.5     0.04373832     -5417.7705326675 -5.50E-02
   217 Broy./Diag. 0.80E-01    1.5     0.00511144     -5417.8063419766 -3.58E-02
   218 Broy./Diag. 0.80E-01    1.5     0.01558810     -5417.8172504566 -1.09E-02
   219 Broy./Diag. 0.80E-01    1.5     0.01240201     -5417.7853292012  3.19E-02
   220 Broy./Diag. 0.80E-01    1.5     0.00231844     -5417.7431122319  4.22E-02
   221 Broy./Diag. 0.80E-01    1.5     0.00832018     -5417.7155924098  2.75E-02
   222 Broy./Diag. 0.80E-01    1.5     0.00259425     -5417.7453442291 -2.98E-02
   223 Broy./Diag. 0.80E-01    1.5     0.00624315     -5417.7344654988  1.09E-02
   224 Broy./Diag. 0.80E-01    1.5     0.00220235     -5417.6063146991  1.28E-01
   225 Broy./Diag. 0.80E-01    1.5     0.03332494     -5417.5777079799  2.86E-02
   226 Broy./Diag. 0.80E-01    1.5     0.02324998     -5417.6620387935 -8.43E-02
   227 Broy./Diag. 0.80E-01    1.5     0.00265000     -5417.8040680467 -1.42E-01
   228 Broy./Diag. 0.80E-01    1.5     0.00464621     -5417.7820240209  2.20E-02
   229 Broy./Diag. 0.80E-01    1.5     0.00198232     -5417.7810344423  9.90E-04
   230 Broy./Diag. 0.80E-01    1.5     0.00631837     -5417.7699042066  1.11E-02
   231 Broy./Diag. 0.80E-01    1.5     0.00259866     -5417.7850748493 -1.52E-02
   232 Broy./Diag. 0.80E-01    1.5     0.01047200     -5417.7448621230  4.02E-02
   233 Broy./Diag. 0.80E-01    1.5     0.00769730     -5417.7247049031  2.02E-02
   234 Broy./Diag. 0.80E-01    1.5     0.01094400     -5417.6705423349  5.42E-02
   235 Broy./Diag. 0.80E-01    1.5     0.00282384     -5417.6200503375  5.05E-02
   236 Broy./Diag. 0.80E-01    1.5     0.02096341     -5417.6404078345 -2.04E-02
   237 Broy./Diag. 0.80E-01    1.5     0.02806428     -5417.6072040983  3.32E-02
   238 Broy./Diag. 0.80E-01    1.5     0.00220404     -5417.6774891093 -7.03E-02
   239 Broy./Diag. 0.80E-01    1.5     0.00550936     -5417.6401112942  3.74E-02
   240 Broy./Diag. 0.80E-01    1.5     0.00641688     -5417.6516016331 -1.15E-02
   241 Broy./Diag. 0.80E-01    1.5     0.03290269     -5417.6800560710 -2.85E-02
   242 Broy./Diag. 0.80E-01    1.5     0.00486182     -5417.7496924766 -6.96E-02
   243 Broy./Diag. 0.80E-01    1.5     0.01398768     -5417.7869605043 -3.73E-02
   244 Broy./Diag. 0.80E-01    1.5     0.00901629     -5417.7843346798  2.63E-03
   245 Broy./Diag. 0.80E-01    1.5     0.00188967     -5417.7939799230 -9.65E-03
   246 Broy./Diag. 0.80E-01    1.5     0.00621068     -5417.8081728056 -1.42E-02
   247 Broy./Diag. 0.80E-01    1.5     0.00248705     -5417.7845863373  2.36E-02
   248 Broy./Diag. 0.80E-01    1.5     0.00279771     -5417.8449725373 -6.04E-02
   249 Broy./Diag. 0.80E-01    1.5     0.00282703     -5417.8225582680  2.24E-02
   250 Broy./Diag. 0.80E-01    1.5     0.00423402     -5417.7929476256  2.96E-02
   251 Broy./Diag. 0.80E-01    1.5     0.00500190     -5417.8112761254 -1.83E-02
   252 Broy./Diag. 0.80E-01    1.5     0.00431228     -5417.8085358306  2.74E-03
   253 Broy./Diag. 0.80E-01    1.5     0.00709393     -5417.8056596839  2.88E-03
   254 Broy./Diag. 0.80E-01    1.5     0.01762563     -5417.7955154396  1.01E-02
   255 Broy./Diag. 0.80E-01    1.5     0.01068423     -5417.8570551880 -6.15E-02
   256 Broy./Diag. 0.80E-01    1.5     0.01131181     -5417.8610205170 -3.97E-03
   257 Broy./Diag. 0.80E-01    1.5     0.00143246     -5417.8158683639  4.52E-02
   258 Broy./Diag. 0.80E-01    1.5     0.00595561     -5417.8093946560  6.47E-03
   259 Broy./Diag. 0.80E-01    1.5     0.00345942     -5417.7870579074  2.23E-02
   260 Broy./Diag. 0.80E-01    1.5     0.00392784     -5417.7820666627  4.99E-03
   261 Broy./Diag. 0.80E-01    1.5     0.01166344     -5417.7859645522 -3.90E-03
   262 Broy./Diag. 0.80E-01    1.5     0.00890721     -5417.7679128873  1.81E-02
   263 Broy./Diag. 0.80E-01    1.5     0.04601205     -5417.7920951464 -2.42E-02
   264 Broy./Diag. 0.80E-01    1.5     0.00868701     -5417.8687267370 -7.66E-02
   265 Broy./Diag. 0.80E-01    1.5     0.01872857     -5417.8693989204 -6.72E-04
   266 Broy./Diag. 0.80E-01    1.5     0.03774504     -5417.7929858404  7.64E-02
   267 Broy./Diag. 0.80E-01    1.5     0.00643913     -5417.8957735362 -1.03E-01
   268 Broy./Diag. 0.80E-01    1.5     0.00282422     -5417.8757134221  2.01E-02
   269 Broy./Diag. 0.80E-01    1.5     0.00403421     -5417.9402106845 -6.45E-02
   270 Broy./Diag. 0.80E-01    1.5     0.02052483     -5418.0390338305 -9.88E-02
   271 Broy./Diag. 0.80E-01    1.5     0.01185378     -5418.0474808216 -8.45E-03
   272 Broy./Diag. 0.80E-01    1.5     0.01968476     -5418.0805054452 -3.30E-02
   273 Broy./Diag. 0.80E-01    1.5     0.10217995     -5418.1435023706 -6.30E-02
   274 Broy./Diag. 0.80E-01    1.5     0.00376296     -5418.1148266396  2.87E-02
   275 Broy./Diag. 0.80E-01    1.5     0.04244318     -5417.9810081534  1.34E-01
   276 Broy./Diag. 0.80E-01    1.5     0.00602904     -5417.9918778326 -1.09E-02
   277 Broy./Diag. 0.80E-01    1.5     0.01932239     -5417.9422727662  4.96E-02
   278 Broy./Diag. 0.80E-01    1.5     0.04163773     -5417.8874042133  5.49E-02
   279 Broy./Diag. 0.80E-01    1.5     0.00159713     -5417.9741675327 -8.68E-02
   280 Broy./Diag. 0.80E-01    1.5     0.00988462     -5417.9629926772  1.12E-02
   281 Broy./Diag. 0.80E-01    1.5     0.00736701     -5418.0115787102 -4.86E-02
   282 Broy./Diag. 0.80E-01    1.5     0.00929086     -5418.0358505241 -2.43E-02
   283 Broy./Diag. 0.80E-01    1.5     0.00601670     -5417.7805264693  2.55E-01
   284 Broy./Diag. 0.80E-01    1.5     0.02110539     -5417.9264038324 -1.46E-01
   285 Broy./Diag. 0.80E-01    1.5     0.00732332     -5417.2946108017  6.32E-01
   286 Broy./Diag. 0.80E-01    1.5     0.00200042     -5417.2961013051 -1.49E-03
   287 Broy./Diag. 0.80E-01    1.5     0.03039228     -5416.9735483063  3.23E-01
   288 Broy./Diag. 0.80E-01    1.5     0.00431386     -5416.8497361761  1.24E-01
   289 Broy./Diag. 0.80E-01    1.5     0.02186753     -5416.9260907143 -7.64E-02
   290 Broy./Diag. 0.80E-01    1.5     0.00997238     -5417.6086296152 -6.83E-01
   291 Broy./Diag. 0.80E-01    1.5     0.00742175     -5417.6727565319 -6.41E-02
   292 Broy./Diag. 0.80E-01    1.5     0.00514101     -5417.7444581163 -7.17E-02
   293 Broy./Diag. 0.80E-01    1.5     0.04476659     -5417.8137294522 -6.93E-02
   294 Broy./Diag. 0.80E-01    1.5     0.02971572     -5417.8980571210 -8.43E-02
   295 Broy./Diag. 0.80E-01    1.5     0.01204081     -5417.8614660770  3.66E-02
   296 Broy./Diag. 0.80E-01    1.5     0.04264421     -5417.8960630514 -3.46E-02
   297 Broy./Diag. 0.80E-01    1.5     0.01212649     -5417.8722799962  2.38E-02
   298 Broy./Diag. 0.80E-01    1.5     0.03625145     -5417.8717079811  5.72E-04
   299 Broy./Diag. 0.80E-01    1.5     0.01848763     -5417.8611141009  1.06E-02
   300 Broy./Diag. 0.80E-01    1.5     0.00340262     -5417.9070581213 -4.59E-02
   301 Broy./Diag. 0.80E-01    1.5     0.00876912     -5417.9821470851 -7.51E-02
   302 Broy./Diag. 0.80E-01    1.5     0.00651560     -5418.0059267426 -2.38E-02
   303 Broy./Diag. 0.80E-01    1.5     0.01743790     -5418.0057595409  1.67E-04
   304 Broy./Diag. 0.80E-01    1.5     0.00315951     -5418.0028402493  2.92E-03
   305 Broy./Diag. 0.80E-01    1.5     0.02090573     -5418.0585282351 -5.57E-02
   306 Broy./Diag. 0.80E-01    1.5     0.03171210     -5417.8734310458  1.85E-01
   307 Broy./Diag. 0.80E-01    1.5     0.00811596     -5417.9834326183 -1.10E-01
   308 Broy./Diag. 0.80E-01    1.5     0.02694146     -5417.9090419809  7.44E-02
   309 Broy./Diag. 0.80E-01    1.5     0.01578850     -5418.0249889703 -1.16E-01
   310 Broy./Diag. 0.80E-01    1.5     0.00351413     -5418.0137834765  1.12E-02
   311 Broy./Diag. 0.80E-01    1.5     0.01645083     -5418.0332916283 -1.95E-02
   312 Broy./Diag. 0.80E-01    1.5     0.01431963     -5418.1002902440 -6.70E-02
   313 Broy./Diag. 0.80E-01    1.5     0.00811402     -5418.1204906002 -2.02E-02
   314 Broy./Diag. 0.80E-01    1.5     0.00577370     -5418.0479609966  7.25E-02
   315 Broy./Diag. 0.80E-01    1.5     0.01231043     -5418.0054886242  4.25E-02
   316 Broy./Diag. 0.80E-01    1.5     0.00688438     -5417.9838427483  2.16E-02
   317 Broy./Diag. 0.80E-01    1.5     0.01150738     -5417.9257760125  5.81E-02
   318 Broy./Diag. 0.80E-01    1.5     0.02557937     -5417.9155165902  1.03E-02
   319 Broy./Diag. 0.80E-01    1.5     0.02764736     -5417.8051065317  1.10E-01
   320 Broy./Diag. 0.80E-01    1.5     0.01229969     -5417.6855436027  1.20E-01
   321 Broy./Diag. 0.80E-01    1.5     0.08966369     -5417.7531245954 -6.76E-02
   322 Broy./Diag. 0.80E-01    1.5     0.04024256     -5417.7484497692  4.67E-03
   323 Broy./Diag. 0.80E-01    1.5     0.01355701     -5417.6801526492  6.83E-02
   324 Broy./Diag. 0.80E-01    1.5     0.01014898     -5417.5614627562  1.19E-01
   325 Broy./Diag. 0.80E-01    1.5     0.00813658     -5417.5931701099 -3.17E-02
   326 Broy./Diag. 0.80E-01    1.5     0.02032777     -5417.4992867882  9.39E-02
   327 Broy./Diag. 0.80E-01    1.5     0.01764160     -5417.7061249429 -2.07E-01
   328 Broy./Diag. 0.80E-01    1.5     0.04789081     -5417.7585412304 -5.24E-02
   329 Broy./Diag. 0.80E-01    1.5     0.00499894     -5417.9881508661 -2.30E-01
   330 Broy./Diag. 0.80E-01    1.5     0.03048504     -5417.9614748887  2.67E-02
   331 Broy./Diag. 0.80E-01    1.5     0.04197458     -5417.9695677888 -8.09E-03
   332 Broy./Diag. 0.80E-01    1.5     0.01471003     -5417.8041006334  1.65E-01
   333 Broy./Diag. 0.80E-01    1.5     0.01307558     -5417.7803450166  2.38E-02
   334 Broy./Diag. 0.80E-01    1.5     0.00628965     -5417.8669541919 -8.66E-02
   335 Broy./Diag. 0.80E-01    1.5     0.00307949     -5417.9335145386 -6.66E-02
   336 Broy./Diag. 0.80E-01    1.5     0.02095116     -5417.9278662466  5.65E-03
   337 Broy./Diag. 0.80E-01    1.5     0.04520540     -5417.8265705623  1.01E-01
   338 Broy./Diag. 0.80E-01    1.5     0.05814295     -5417.8941366059 -6.76E-02
   339 Broy./Diag. 0.80E-01    1.5     0.01014583     -5416.8464917514  1.05E+00
   340 Broy./Diag. 0.80E-01    1.5     0.01391859     -5417.2419577098 -3.95E-01
   341 Broy./Diag. 0.80E-01    1.5     0.02982038     -5415.6537662681  1.59E+00
   342 Broy./Diag. 0.80E-01    1.5     0.14885520     -5415.9601327102 -3.06E-01
   343 Broy./Diag. 0.80E-01    1.5     0.12789823     -5417.5704040879 -1.61E+00
   344 Broy./Diag. 0.80E-01    1.5     0.08012619     -5416.3682574338  1.20E+00
   345 Broy./Diag. 0.80E-01    1.5     0.06303875     -5416.5661128506 -1.98E-01
   346 Broy./Diag. 0.80E-01    1.5     0.07559839     -5414.8076228945  1.76E+00
   347 Broy./Diag. 0.80E-01    1.5     0.11886026     -5417.6850647030 -2.88E+00
   348 Broy./Diag. 0.80E-01    1.5     0.10950243     -5416.9359139501  7.49E-01
   349 Broy./Diag. 0.80E-01    1.5     0.09442517     -5417.5766322091 -6.41E-01
   350 Broy./Diag. 0.80E-01    1.5     0.23156966     -5416.4141521085  1.16E+00
   351 Broy./Diag. 0.80E-01    1.5     0.04010889     -5417.1293947255 -7.15E-01
   352 Broy./Diag. 0.80E-01    1.5     0.17278321     -5417.1052994529  2.41E-02
   353 Broy./Diag. 0.80E-01    1.5     0.13727544     -5414.9817917646  2.12E+00
   354 Broy./Diag. 0.80E-01    1.5     0.10015045     -5417.6235578600 -2.64E+00
   355 Broy./Diag. 0.80E-01    1.5     0.03194063     -5413.8023535431  3.82E+00
   356 Broy./Diag. 0.80E-01    1.5     0.16018521     -5417.6145608013 -3.81E+00
   357 Broy./Diag. 0.80E-01    1.5     0.02955991     -5415.7000852203  1.91E+00
   358 Broy./Diag. 0.80E-01    1.5     0.05578469     -5417.6345866652 -1.93E+00
   359 Broy./Diag. 0.80E-01    1.5     0.07763208     -5416.9010484121  7.34E-01
   360 Broy./Diag. 0.80E-01    1.5     0.11517670     -5418.0672302884 -1.17E+00
   361 Broy./Diag. 0.80E-01    1.5     0.22614534     -5414.9951359820  3.07E+00
   362 Broy./Diag. 0.80E-01    1.5     0.09581712     -5417.9539972729 -2.96E+00
