 DBCSR| CPU Multiplication driver                                           XSMM (U)
 DBCSR| Multrec recursion limit                                              512 (U)
 DBCSR| Multiplication stack size                                           1000 (D)
 DBCSR| Maximum elements for images                                    UNLIMITED (U)
 DBCSR| Multiplicative factor virtual images                                   1 (U)
 DBCSR| Use multiplication densification                                       T (D)
 DBCSR| Multiplication size stacks                                             3 (U)
 DBCSR| Use memory pool for CPU allocation                                     F (U)
 DBCSR| Number of 3D layers                                               SINGLE (U)
 DBCSR| Use MPI memory allocation                                              F (U)
 DBCSR| Use RMA algorithm                                                      F (U)
 DBCSR| Use Communication thread                                               T (U)
 DBCSR| Communication thread load                                             87 (D)
 DBCSR| MPI: My process id                                                     0
 DBCSR| MPI: Number of processes                                             128
 DBCSR| OMP: Current number of threads                                         1
 DBCSR| OMP: Max number of threads                                             1
 DBCSR| Split modifier for TAS multiplication algorithm                  1.0E+00 (U)


  **** **** ******  **  PROGRAM STARTED AT               2023-02-14 15:48:49.546
 ***** ** ***  *** **   PROGRAM STARTED ON                             nid006727
 **    ****   ******    PROGRAM STARTED BY                                cahart
 ***** **    ** ** **   PROGRAM PROCESS ID                                 34059
  **** **  *******  **  PROGRAM STARTED IN /mnt/lustre/a2fs-work2/work/e05/e05/c
                                           ahart/postdoc/masters/ni/archer2/slab
                                           /optimise/alpha-beta/scf_1e-4_mos-100
                                           0_temp-2000_spin-0.7-0.5_periodic-xyz
                                           /search/1.0E-1_4.0E-03

 CP2K| version string:                 CP2K version 2023.1 (Development Version)
 CP2K| source code revision number:                                  git:964cd58
 CP2K| cp2kflags: omp libint fftw3 libxc elpa parallel scalapack xsmm plumed2 mk
 CP2K|            l
 CP2K| is freely available from                            https://www.cp2k.org/
 CP2K| Program compiled at                          Mon 13 Feb 17:05:14 GMT 2023
 CP2K| Program compiled on                                                  ln01
 CP2K| Program compiled for                                              ARCHER2
 CP2K| Data directory path    /work/e05/e05/cahart/cp2k/cp2k-2023.1/cp2k-2023.1-
 CP2K| Input file name                                                  cp2k.inp

 GLOBAL| Force Environment number                                              1
 GLOBAL| Basis set file name                                        BASIS_MOLOPT
 GLOBAL| Potential file name                                      GTH_POTENTIALS
 GLOBAL| MM Potential file name                                     MM_POTENTIAL
 GLOBAL| Coordinate file name                                      __STD_INPUT__
 GLOBAL| Method name                                                        CP2K
 GLOBAL| Project name                                                    Ni_bulk
 GLOBAL| Run type                                                         ENERGY
 GLOBAL| FFT library                                                       FFTW3
 GLOBAL| Diagonalization library                                            ELPA
 GLOBAL| DGEMM library                                                      BLAS
 GLOBAL| Minimum number of eigenvectors for ELPA usage                        16
 GLOBAL| Orthonormality check for eigenvectors                          DISABLED
 GLOBAL| Matrix multiplication library                                 ScaLAPACK
 GLOBAL| All-to-all communication in single precision                          F
 GLOBAL| FFTs using library dependent lengths                                  F
 GLOBAL| Grid backend                                                       AUTO
 GLOBAL| Global print level                                               MEDIUM
 GLOBAL| MPI I/O enabled                                                       T
 GLOBAL| Total number of message passing processes                           128
 GLOBAL| Number of threads for this process                                    1
 GLOBAL| This output is from process                                           0
 GLOBAL| Stack size for threads created by OpenMP (OMP_STACKSIZE)        default
 GLOBAL| CPU model name                          AMD EPYC 7742 64-Core Processor
 GLOBAL| CPUID                                                              1002

 MEMORY| system memory details [Kb]
 MEMORY|                        rank 0           min           max       average
 MEMORY| MemTotal            263528088     263528088     263528088     263528088
 MEMORY| MemFree             238852812     238852812     238852812     238852812
 MEMORY| Buffers                 24452         24452         24452         24452
 MEMORY| Cached                 635564        635564        635564        635564
 MEMORY| Slab                  1582496       1582496       1582496       1582496
 MEMORY| SReclaimable           108388        108388        108388        108388
 MEMORY| MemLikelyFree       239621216     239621216     239621216     239621216


 *** Fundamental physical constants (SI units) ***

 *** Literature: B. J. Mohr and B. N. Taylor,
 ***             CODATA recommended values of the fundamental physical
 ***             constants: 2006, Web Version 5.1
 ***             http://physics.nist.gov/constants

 Speed of light in vacuum [m/s]                             2.99792458000000E+08
 Magnetic constant or permeability of vacuum [N/A**2]       1.25663706143592E-06
 Electric constant or permittivity of vacuum [F/m]          8.85418781762039E-12
 Planck constant (h) [J*s]                                  6.62606896000000E-34
 Planck constant (h-bar) [J*s]                              1.05457162825177E-34
 Elementary charge [C]                                      1.60217648700000E-19
 Electron mass [kg]                                         9.10938215000000E-31
 Electron g factor [ ]                                     -2.00231930436220E+00
 Proton mass [kg]                                           1.67262163700000E-27
 Fine-structure constant                                    7.29735253760000E-03
 Rydberg constant [1/m]                                     1.09737315685270E+07
 Avogadro constant [1/mol]                                  6.02214179000000E+23
 Boltzmann constant [J/K]                                   1.38065040000000E-23
 Atomic mass unit [kg]                                      1.66053878200000E-27
 Bohr radius [m]                                            5.29177208590000E-11

 *** Conversion factors ***

 [u] -> [a.u.]                                              1.82288848426455E+03
 [Angstrom] -> [Bohr] = [a.u.]                              1.88972613288564E+00
 [a.u.] = [Bohr] -> [Angstrom]                              5.29177208590000E-01
 [a.u.] -> [s]                                              2.41888432650478E-17
 [a.u.] -> [fs]                                             2.41888432650478E-02
 [a.u.] -> [J]                                              4.35974393937059E-18
 [a.u.] -> [N]                                              8.23872205491840E-08
 [a.u.] -> [K]                                              3.15774647902944E+05
 [a.u.] -> [kJ/mol]                                         2.62549961709828E+03
 [a.u.] -> [kcal/mol]                                       6.27509468713739E+02
 [a.u.] -> [Pa]                                             2.94210107994716E+13
 [a.u.] -> [bar]                                            2.94210107994716E+08
 [a.u.] -> [atm]                                            2.90362800883016E+08
 [a.u.] -> [eV]                                             2.72113838565563E+01
 [a.u.] -> [Hz]                                             6.57968392072181E+15
 [a.u.] -> [1/cm] (wave numbers)                            2.19474631370540E+05
 [a.u./Bohr**2] -> [1/cm]                                   5.14048714338585E+03
 

 CELL_TOP| Volume [angstrom^3]:                                       983.249569
 CELL_TOP| Vector a [angstrom     7.012     0.000     0.000   |a| =     7.011596
 CELL_TOP| Vector b [angstrom     0.000     7.012     0.000   |b| =     7.011596
 CELL_TOP| Vector c [angstrom     0.000     0.000    20.000   |c| =    20.000000
 CELL_TOP| Angle (b,c), alpha [degree]:                                90.000000
 CELL_TOP| Angle (a,c), beta  [degree]:                                90.000000
 CELL_TOP| Angle (a,b), gamma [degree]:                                90.000000
 CELL_TOP| Numerically orthorhombic:                                         YES
 CELL_TOP| Periodicity                                                       XYZ

 GENERATE|  Preliminary Number of Bonds generated:                             0
 GENERATE|  Achieved consistency in connectivity generation.

 CELL| Volume [angstrom^3]:                                           983.249569
 CELL| Vector a [angstrom]:       7.012     0.000     0.000   |a| =     7.011596
 CELL| Vector b [angstrom]:       0.000     7.012     0.000   |b| =     7.011596
 CELL| Vector c [angstrom]:       0.000     0.000    20.000   |c| =    20.000000
 CELL| Angle (b,c), alpha [degree]:                                    90.000000
 CELL| Angle (a,c), beta  [degree]:                                    90.000000
 CELL| Angle (a,b), gamma [degree]:                                    90.000000
 CELL| Numerically orthorhombic:                                             YES
 CELL| Periodicity                                                           XYZ

 CELL_REF| Volume [angstrom^3]:                                       983.249569
 CELL_REF| Vector a [angstrom     7.012     0.000     0.000   |a| =     7.011596
 CELL_REF| Vector b [angstrom     0.000     7.012     0.000   |b| =     7.011596
 CELL_REF| Vector c [angstrom     0.000     0.000    20.000   |c| =    20.000000
 CELL_REF| Angle (b,c), alpha [degree]:                                90.000000
 CELL_REF| Angle (a,c), beta  [degree]:                                90.000000
 CELL_REF| Angle (a,b), gamma [degree]:                                90.000000
 CELL_REF| Numerically orthorhombic:                                         YES
 CELL_REF| Periodicity                                                       XYZ

 *** WARNING in cryssym.F:165 :: Symmetry library SPGLIB not available ***


 *******************************************************************************
                                    Kpoints
 *******************************************************************************
 BRILLOUIN| K-point scheme                                        Monkhorst-Pack
 BRILLOUIN| K-Point grid                                             4    4    1
 BRILLOUIN| Accuracy in Symmetry determination                      0.100000E-05
 BRILLOUIN| K-Point point group symmetrization                               OFF
 BRILLOUIN| Wavefunction type                                            COMPLEX
 BRILLOUIN| List of Kpoints [2 Pi/Bohr]                                        8
 BRILLOUIN| Number           Weight            X              Y              Z
 BRILLOUIN|     1           0.12500       -0.37500       -0.37500        0.00000
 BRILLOUIN|     2           0.12500       -0.37500       -0.12500        0.00000
 BRILLOUIN|     3           0.12500       -0.37500        0.12500        0.00000
 BRILLOUIN|     4           0.12500       -0.37500        0.37500        0.00000
 BRILLOUIN|     5           0.12500       -0.12500       -0.37500        0.00000
 BRILLOUIN|     6           0.12500       -0.12500       -0.12500        0.00000
 BRILLOUIN|     7           0.12500       -0.12500        0.12500        0.00000
 BRILLOUIN|     8           0.12500       -0.12500        0.37500        0.00000
 *******************************************************************************

 *******************************************************************************
 *******************************************************************************
 **                                                                           **
 **     #####                         ##              ##                      **
 **    ##   ##            ##          ##              ##                      **
 **   ##     ##                       ##            ######                    **
 **   ##     ##  ##   ##  ##   #####  ##  ##   ####   ##    #####    #####    **
 **   ##     ##  ##   ##  ##  ##      ## ##   ##      ##   ##   ##  ##   ##   **
 **   ##  ## ##  ##   ##  ##  ##      ####     ###    ##   ######   ######    **
 **    ##  ###   ##   ##  ##  ##      ## ##      ##   ##   ##       ##        **
 **     #######   #####   ##   #####  ##  ##  ####    ##    #####   ##        **
 **           ##                                                    ##        **
 **                                                                           **
 **                                                ... make the atoms dance   **
 **                                                                           **
 **            Copyright (C) by CP2K developers group (2000-2023)             **
 **                      J. Chem. Phys. 152, 194103 (2020)                    **
 **                                                                           **
 *******************************************************************************

 *** WARNING in qs_environment.F:1456 :: Number of electrons will be ***
 *** overwritten by NELEC_ALPHA and NELEC_BETA, multiplicity will be ***
 *** ignored.                                                        ***

 Number of electrons should be                                               576
 Sum of NELEC_ALPHA and NELEC_BETA is                                    576.000

 *** WARNING in qs_environment.F:1488 :: NELEC_ALPHA is not an integer, ***
 *** many features will not be supported.                               ***


 *** WARNING in qs_environment.F:1500 :: NELEC_BETA is not an integer, ***
 *** many features will not be supported.                              ***


 *** WARNING in qs_environment.F:1532 :: More ADDED_MOs requested for beta ***
 *** spin than available.                                                  ***


 *** WARNING in qs_environment.F:1548 :: More added MOs requested than     ***
 *** available. The full set of unoccupied MOs will be used. Use           ***
 *** 'ADDED_MOS -1' to always use all available MOs and to get rid of this ***
 *** warning.                                                              ***


 DFT| Spin unrestricted (spin-polarized) Kohn-Sham calculation               UKS
 DFT| Multiplicity                                                             1
 DFT| Number of spin states                                                    2
 DFT| Charge                                                                   0
 DFT| Self-interaction correction (SIC)                                       NO
 DFT| Cutoffs: density                                              1.000000E-10
 DFT|          gradient                                             1.000000E-10
 DFT|          tau                                                  1.000000E-10
 DFT|          cutoff_smoothing_range                               0.000000E+00
 DFT| XC density smoothing                                                  NONE
 DFT| XC derivatives                                                          PW

 FUNCTIONAL| PBE:
 FUNCTIONAL| J.P.Perdew, K.Burke, M.Ernzerhof, Phys. Rev. Letter, vol. 77, n 18,
 FUNCTIONAL|  pp. 3865-3868, (1996){spin polarized}                             

 vdW POTENTIAL|                                                   Pair Potential
 vdW POTENTIAL|          DFT-D3 (Version 3.1)
 vdW POTENTIAL|          Potential Form: S. Grimme et al, JCP 132: 154104 (2010)
 vdW POTENTIAL|          Zero Damping
 vdW POTENTIAL|          Cutoff Radius [Bohr]:                             20.00
 vdW POTENTIAL|          s6 Scaling Factor:                               1.0000
 vdW POTENTIAL|          sr6 Scaling Factor:                              1.2170
 vdW POTENTIAL|          s8 Scaling Factor:                               0.7220
 vdW POTENTIAL|          Cutoff for CN calculation:                   0.1000E-05

 QS| Method:                                                                 GPW
 QS| Density plane wave grid type                        NON-SPHERICAL FULLSPACE
 QS| Number of grid levels:                                                    5
 QS| Density cutoff [a.u.]:                                                300.0
 QS| Multi grid cutoff [a.u.]: 1) grid level                               300.0
 QS|                           2) grid level                               100.0
 QS|                           3) grid level                                33.3
 QS|                           4) grid level                                11.1
 QS|                           5) grid level                                 3.7
 QS| Grid level progression factor:                                          3.0
 QS| Relative density cutoff [a.u.]:                                        30.0
 QS| Interaction thresholds: eps_pgf_orb:                                1.0E-06
 QS|                         eps_filter_matrix:                          0.0E+00
 QS|                         eps_core_charge:                            1.0E-14
 QS|                         eps_rho_gspace:                             1.0E-12
 QS|                         eps_rho_rspace:                             1.0E-12
 QS|                         eps_gvg_rspace:                             1.0E-06
 QS|                         eps_ppl:                                    1.0E-02
 QS|                         eps_ppnl:                                   1.0E-08


 ATOMIC KIND INFORMATION

  1. Atomic kind: Ni_i                                  Number of atoms:      16

     Orbital Basis Set                                        DZVP-MOLOPT-SR-GTH

       Number of orbital shell sets:                                           1
       Number of orbital shells:                                               8
       Number of primitive Cartesian functions:                                6
       Number of Cartesian basis functions:                                   31
       Number of spherical basis functions:                                   26
       Norm type:                                                              2

       Normalised Cartesian orbitals:

                        Set   Shell   Orbital            Exponent    Coefficient

                          1       1    2s               10.077428      -0.684558
                                                         5.847736      -0.844524
                                                         2.494033       1.088856
                                                         0.988355       0.395503
                                                         0.344978       0.010224
                                                         0.099466      -0.003250

                          1       2    3s               10.077428       0.096747
                                                         5.847736       0.162504
                                                         2.494033      -0.297192
                                                         0.988355      -0.319752
                                                         0.344978       0.088318
                                                         0.099466       0.118587

                          1       3    4s               10.077428       0.036437
                                                         5.847736      -0.381480
                                                         2.494033       0.003759
                                                         0.988355      -1.048256
                                                         0.344978       0.855825
                                                         0.099466      -0.176350

                          1       4    3px              10.077428      -3.133913
                                                         5.847736       3.027656
                                                         2.494033       2.353227
                                                         0.988355       0.554184
                                                         0.344978       0.019462
                                                         0.099466      -0.000291
                          1       4    3py              10.077428      -3.133913
                                                         5.847736       3.027656
                                                         2.494033       2.353227
                                                         0.988355       0.554184
                                                         0.344978       0.019462
                                                         0.099466      -0.000291
                          1       4    3pz              10.077428      -3.133913
                                                         5.847736       3.027656
                                                         2.494033       2.353227
                                                         0.988355       0.554184
                                                         0.344978       0.019462
                                                         0.099466      -0.000291

                          1       5    4px              10.077428      -0.112729
                                                         5.847736      -0.114008
                                                         2.494033      -0.347303
                                                         0.988355      -0.110323
                                                         0.344978       0.154096
                                                         0.099466       0.058386
                          1       5    4py              10.077428      -0.112729
                                                         5.847736      -0.114008
                                                         2.494033      -0.347303
                                                         0.988355      -0.110323
                                                         0.344978       0.154096
                                                         0.099466       0.058386
                          1       5    4pz              10.077428      -0.112729
                                                         5.847736      -0.114008
                                                         2.494033      -0.347303
                                                         0.988355      -0.110323
                                                         0.344978       0.154096
                                                         0.099466       0.058386

                          1       6    4dx2             10.077428       8.232726
                                                         5.847736       9.105758
                                                         2.494033       2.849835
                                                         0.988355       0.554319
                                                         0.344978       0.067245
                                                         0.099466       0.001940
                          1       6    4dxy             10.077428      14.259500
                                                         5.847736      15.771636
                                                         2.494033       4.936060
                                                         0.988355       0.960109
                                                         0.344978       0.116472
                                                         0.099466       0.003360
                          1       6    4dxz             10.077428      14.259500
                                                         5.847736      15.771636
                                                         2.494033       4.936060
                                                         0.988355       0.960109
                                                         0.344978       0.116472
                                                         0.099466       0.003360
                          1       6    4dy2             10.077428       8.232726
                                                         5.847736       9.105758
                                                         2.494033       2.849835
                                                         0.988355       0.554319
                                                         0.344978       0.067245
                                                         0.099466       0.001940
                          1       6    4dyz             10.077428      14.259500
                                                         5.847736      15.771636
                                                         2.494033       4.936060
                                                         0.988355       0.960109
                                                         0.344978       0.116472
                                                         0.099466       0.003360
                          1       6    4dz2             10.077428       8.232726
                                                         5.847736       9.105758
                                                         2.494033       2.849835
                                                         0.988355       0.554319
                                                         0.344978       0.067245
                                                         0.099466       0.001940

                          1       7    5dx2             10.077428      -2.715373
                                                         5.847736      -4.020640
                                                         2.494033      -1.397569
                                                         0.988355      -0.076143
                                                         0.344978       0.033435
                                                         0.099466       0.026032
                          1       7    5dxy             10.077428      -4.703164
                                                         5.847736      -6.963952
                                                         2.494033      -2.420661
                                                         0.988355      -0.131883
                                                         0.344978       0.057911
                                                         0.099466       0.045088
                          1       7    5dxz             10.077428      -4.703164
                                                         5.847736      -6.963952
                                                         2.494033      -2.420661
                                                         0.988355      -0.131883
                                                         0.344978       0.057911
                                                         0.099466       0.045088
                          1       7    5dy2             10.077428      -2.715373
                                                         5.847736      -4.020640
                                                         2.494033      -1.397569
                                                         0.988355      -0.076143
                                                         0.344978       0.033435
                                                         0.099466       0.026032
                          1       7    5dyz             10.077428      -4.703164
                                                         5.847736      -6.963952
                                                         2.494033      -2.420661
                                                         0.988355      -0.131883
                                                         0.344978       0.057911
                                                         0.099466       0.045088
                          1       7    5dz2             10.077428      -2.715373
                                                         5.847736      -4.020640
                                                         2.494033      -1.397569
                                                         0.988355      -0.076143
                                                         0.344978       0.033435
                                                         0.099466       0.026032

                          1       8    5fx3             10.077428      -0.467694
                                                         5.847736       0.618100
                                                         2.494033       0.066069
                                                         0.988355       0.262898
                                                         0.344978       0.004720
                                                         0.099466       0.007748
                          1       8    5fx2y            10.077428      -1.045795
                                                         5.847736       1.382114
                                                         2.494033       0.147734
                                                         0.988355       0.587859
                                                         0.344978       0.010555
                                                         0.099466       0.017325
                          1       8    5fx2z            10.077428      -1.045795
                                                         5.847736       1.382114
                                                         2.494033       0.147734
                                                         0.988355       0.587859
                                                         0.344978       0.010555
                                                         0.099466       0.017325
                          1       8    5fxy2            10.077428      -1.045795
                                                         5.847736       1.382114
                                                         2.494033       0.147734
                                                         0.988355       0.587859
                                                         0.344978       0.010555
                                                         0.099466       0.017325
                          1       8    5fxyz            10.077428      -1.811371
                                                         5.847736       2.393892
                                                         2.494033       0.255883
                                                         0.988355       1.018201
                                                         0.344978       0.018282
                                                         0.099466       0.030008
                          1       8    5fxz2            10.077428      -1.045795
                                                         5.847736       1.382114
                                                         2.494033       0.147734
                                                         0.988355       0.587859
                                                         0.344978       0.010555
                                                         0.099466       0.017325
                          1       8    5fy3             10.077428      -0.467694
                                                         5.847736       0.618100
                                                         2.494033       0.066069
                                                         0.988355       0.262898
                                                         0.344978       0.004720
                                                         0.099466       0.007748
                          1       8    5fy2z            10.077428      -1.045795
                                                         5.847736       1.382114
                                                         2.494033       0.147734
                                                         0.988355       0.587859
                                                         0.344978       0.010555
                                                         0.099466       0.017325
                          1       8    5fyz2            10.077428      -1.045795
                                                         5.847736       1.382114
                                                         2.494033       0.147734
                                                         0.988355       0.587859
                                                         0.344978       0.010555
                                                         0.099466       0.017325
                          1       8    5fz3             10.077428      -0.467694
                                                         5.847736       0.618100
                                                         2.494033       0.066069
                                                         0.988355       0.262898
                                                         0.344978       0.004720
                                                         0.099466       0.007748

       Atomic covalent radius [Angstrom]:                                  1.150

       Atomic van der Waals radius [Angstrom]:                             1.630

     GTH Potential information for                                   GTH-PBE-q18

       Description:                       Goedecker-Teter-Hutter pseudopotential
                                           Goedecker et al., PRB 54, 1703 (1996)
                                          Hartwigsen et al., PRB 58, 3641 (1998)
                                                      Krack, TCA 114, 145 (2005)

       Gaussian exponent of the core charge distribution:               4.081633
       Electronic configuration (s p d ...):                           4   6   8

       Parameters of the local part of the GTH pseudopotential:

                          rloc        C1          C2          C3          C4
                        0.350000    2.102166    0.648484

       Parameters of the non-local part of the GTH pseudopotential:

                   l      r(l)      h(i,j,l)

                   0    0.261295    0.622658    9.970227
                                    9.970227  -12.871507
                   1    0.224253  -11.142708   12.429566
                                   12.429566  -14.706861
                   2    0.215348  -12.628146

  2. Atomic kind: Ni_b                                  Number of atoms:      16

     Orbital Basis Set                                        DZVP-MOLOPT-SR-GTH

       Number of orbital shell sets:                                           1
       Number of orbital shells:                                               8
       Number of primitive Cartesian functions:                                6
       Number of Cartesian basis functions:                                   31
       Number of spherical basis functions:                                   26
       Norm type:                                                              2

       Normalised Cartesian orbitals:

                        Set   Shell   Orbital            Exponent    Coefficient

                          1       1    2s               10.077428      -0.684558
                                                         5.847736      -0.844524
                                                         2.494033       1.088856
                                                         0.988355       0.395503
                                                         0.344978       0.010224
                                                         0.099466      -0.003250

                          1       2    3s               10.077428       0.096747
                                                         5.847736       0.162504
                                                         2.494033      -0.297192
                                                         0.988355      -0.319752
                                                         0.344978       0.088318
                                                         0.099466       0.118587

                          1       3    4s               10.077428       0.036437
                                                         5.847736      -0.381480
                                                         2.494033       0.003759
                                                         0.988355      -1.048256
                                                         0.344978       0.855825
                                                         0.099466      -0.176350

                          1       4    3px              10.077428      -3.133913
                                                         5.847736       3.027656
                                                         2.494033       2.353227
                                                         0.988355       0.554184
                                                         0.344978       0.019462
                                                         0.099466      -0.000291
                          1       4    3py              10.077428      -3.133913
                                                         5.847736       3.027656
                                                         2.494033       2.353227
                                                         0.988355       0.554184
                                                         0.344978       0.019462
                                                         0.099466      -0.000291
                          1       4    3pz              10.077428      -3.133913
                                                         5.847736       3.027656
                                                         2.494033       2.353227
                                                         0.988355       0.554184
                                                         0.344978       0.019462
                                                         0.099466      -0.000291

                          1       5    4px              10.077428      -0.112729
                                                         5.847736      -0.114008
                                                         2.494033      -0.347303
                                                         0.988355      -0.110323
                                                         0.344978       0.154096
                                                         0.099466       0.058386
                          1       5    4py              10.077428      -0.112729
                                                         5.847736      -0.114008
                                                         2.494033      -0.347303
                                                         0.988355      -0.110323
                                                         0.344978       0.154096
                                                         0.099466       0.058386
                          1       5    4pz              10.077428      -0.112729
                                                         5.847736      -0.114008
                                                         2.494033      -0.347303
                                                         0.988355      -0.110323
                                                         0.344978       0.154096
                                                         0.099466       0.058386

                          1       6    4dx2             10.077428       8.232726
                                                         5.847736       9.105758
                                                         2.494033       2.849835
                                                         0.988355       0.554319
                                                         0.344978       0.067245
                                                         0.099466       0.001940
                          1       6    4dxy             10.077428      14.259500
                                                         5.847736      15.771636
                                                         2.494033       4.936060
                                                         0.988355       0.960109
                                                         0.344978       0.116472
                                                         0.099466       0.003360
                          1       6    4dxz             10.077428      14.259500
                                                         5.847736      15.771636
                                                         2.494033       4.936060
                                                         0.988355       0.960109
                                                         0.344978       0.116472
                                                         0.099466       0.003360
                          1       6    4dy2             10.077428       8.232726
                                                         5.847736       9.105758
                                                         2.494033       2.849835
                                                         0.988355       0.554319
                                                         0.344978       0.067245
                                                         0.099466       0.001940
                          1       6    4dyz             10.077428      14.259500
                                                         5.847736      15.771636
                                                         2.494033       4.936060
                                                         0.988355       0.960109
                                                         0.344978       0.116472
                                                         0.099466       0.003360
                          1       6    4dz2             10.077428       8.232726
                                                         5.847736       9.105758
                                                         2.494033       2.849835
                                                         0.988355       0.554319
                                                         0.344978       0.067245
                                                         0.099466       0.001940

                          1       7    5dx2             10.077428      -2.715373
                                                         5.847736      -4.020640
                                                         2.494033      -1.397569
                                                         0.988355      -0.076143
                                                         0.344978       0.033435
                                                         0.099466       0.026032
                          1       7    5dxy             10.077428      -4.703164
                                                         5.847736      -6.963952
                                                         2.494033      -2.420661
                                                         0.988355      -0.131883
                                                         0.344978       0.057911
                                                         0.099466       0.045088
                          1       7    5dxz             10.077428      -4.703164
                                                         5.847736      -6.963952
                                                         2.494033      -2.420661
                                                         0.988355      -0.131883
                                                         0.344978       0.057911
                                                         0.099466       0.045088
                          1       7    5dy2             10.077428      -2.715373
                                                         5.847736      -4.020640
                                                         2.494033      -1.397569
                                                         0.988355      -0.076143
                                                         0.344978       0.033435
                                                         0.099466       0.026032
                          1       7    5dyz             10.077428      -4.703164
                                                         5.847736      -6.963952
                                                         2.494033      -2.420661
                                                         0.988355      -0.131883
                                                         0.344978       0.057911
                                                         0.099466       0.045088
                          1       7    5dz2             10.077428      -2.715373
                                                         5.847736      -4.020640
                                                         2.494033      -1.397569
                                                         0.988355      -0.076143
                                                         0.344978       0.033435
                                                         0.099466       0.026032

                          1       8    5fx3             10.077428      -0.467694
                                                         5.847736       0.618100
                                                         2.494033       0.066069
                                                         0.988355       0.262898
                                                         0.344978       0.004720
                                                         0.099466       0.007748
                          1       8    5fx2y            10.077428      -1.045795
                                                         5.847736       1.382114
                                                         2.494033       0.147734
                                                         0.988355       0.587859
                                                         0.344978       0.010555
                                                         0.099466       0.017325
                          1       8    5fx2z            10.077428      -1.045795
                                                         5.847736       1.382114
                                                         2.494033       0.147734
                                                         0.988355       0.587859
                                                         0.344978       0.010555
                                                         0.099466       0.017325
                          1       8    5fxy2            10.077428      -1.045795
                                                         5.847736       1.382114
                                                         2.494033       0.147734
                                                         0.988355       0.587859
                                                         0.344978       0.010555
                                                         0.099466       0.017325
                          1       8    5fxyz            10.077428      -1.811371
                                                         5.847736       2.393892
                                                         2.494033       0.255883
                                                         0.988355       1.018201
                                                         0.344978       0.018282
                                                         0.099466       0.030008
                          1       8    5fxz2            10.077428      -1.045795
                                                         5.847736       1.382114
                                                         2.494033       0.147734
                                                         0.988355       0.587859
                                                         0.344978       0.010555
                                                         0.099466       0.017325
                          1       8    5fy3             10.077428      -0.467694
                                                         5.847736       0.618100
                                                         2.494033       0.066069
                                                         0.988355       0.262898
                                                         0.344978       0.004720
                                                         0.099466       0.007748
                          1       8    5fy2z            10.077428      -1.045795
                                                         5.847736       1.382114
                                                         2.494033       0.147734
                                                         0.988355       0.587859
                                                         0.344978       0.010555
                                                         0.099466       0.017325
                          1       8    5fyz2            10.077428      -1.045795
                                                         5.847736       1.382114
                                                         2.494033       0.147734
                                                         0.988355       0.587859
                                                         0.344978       0.010555
                                                         0.099466       0.017325
                          1       8    5fz3             10.077428      -0.467694
                                                         5.847736       0.618100
                                                         2.494033       0.066069
                                                         0.988355       0.262898
                                                         0.344978       0.004720
                                                         0.099466       0.007748

       Atomic covalent radius [Angstrom]:                                  1.150

       Atomic van der Waals radius [Angstrom]:                             1.630

     GTH Potential information for                                   GTH-PBE-q18

       Description:                       Goedecker-Teter-Hutter pseudopotential
                                           Goedecker et al., PRB 54, 1703 (1996)
                                          Hartwigsen et al., PRB 58, 3641 (1998)
                                                      Krack, TCA 114, 145 (2005)

       Gaussian exponent of the core charge distribution:               4.081633
       Electronic configuration (s p d ...):                           4   6   8

       Parameters of the local part of the GTH pseudopotential:

                          rloc        C1          C2          C3          C4
                        0.350000    2.102166    0.648484

       Parameters of the non-local part of the GTH pseudopotential:

                   l      r(l)      h(i,j,l)

                   0    0.261295    0.622658    9.970227
                                    9.970227  -12.871507
                   1    0.224253  -11.142708   12.429566
                                   12.429566  -14.706861
                   2    0.215348  -12.628146


 MOLECULE KIND INFORMATION


 All atoms are their own molecule, skipping detailed information


 TOTAL NUMBERS AND MAXIMUM NUMBERS

  Total number of            - Atomic kinds:                                   2
                             - Atoms:                                         32
                             - Shell sets:                                    32
                             - Shells:                                       256
                             - Primitive Cartesian functions:                192
                             - Cartesian basis functions:                    992
                             - Spherical basis functions:                    832

  Maximum angular momentum of- Orbital basis functions:                        3
                             - Local part of the GTH pseudopotential:          2
                             - Non-local part of the GTH pseudopotential:      3


 MODULE QUICKSTEP: ATOMIC COORDINATES IN ANGSTROM

   Atom Kind Element         X             Y             Z       Z(eff)     Mass
      1    1 Ni   28      0.876298      0.876298      7.370500  18.0000  58.6934
      2    1 Ni   28      0.876298      4.382298      7.370500  18.0000  58.6934
      3    1 Ni   28      2.629298      2.629298      7.370500  18.0000  58.6934
      4    1 Ni   28      2.629298      6.135298      7.370500  18.0000  58.6934
      5    1 Ni   28      4.382298      0.876298      7.370500  18.0000  58.6934
      6    1 Ni   28      4.382298      4.382298      7.370500  18.0000  58.6934
      7    1 Ni   28      6.135298      2.629298      7.370500  18.0000  58.6934
      8    1 Ni   28      6.135298      6.135298      7.370500  18.0000  58.6934
      9    2 Ni   28      0.876298      2.629298      9.123500  18.0000  58.6934
     10    2 Ni   28      0.876298      6.135298      9.123500  18.0000  58.6934
     11    2 Ni   28      2.629298      0.876298      9.123500  18.0000  58.6934
     12    2 Ni   28      2.629298      4.382298      9.123500  18.0000  58.6934
     13    2 Ni   28      4.382298      2.629298      9.123500  18.0000  58.6934
     14    2 Ni   28      4.382298      6.135298      9.123500  18.0000  58.6934
     15    2 Ni   28      6.135298      0.876298      9.123500  18.0000  58.6934
     16    2 Ni   28      6.135298      4.382298      9.123500  18.0000  58.6934
     17    2 Ni   28      0.876298      0.876298     10.876500  18.0000  58.6934
     18    2 Ni   28      0.876298      4.382298     10.876500  18.0000  58.6934
     19    2 Ni   28      2.629298      2.629298     10.876500  18.0000  58.6934
     20    2 Ni   28      2.629298      6.135298     10.876500  18.0000  58.6934
     21    2 Ni   28      4.382298      0.876298     10.876500  18.0000  58.6934
     22    2 Ni   28      4.382298      4.382298     10.876500  18.0000  58.6934
     23    2 Ni   28      6.135298      2.629298     10.876500  18.0000  58.6934
     24    2 Ni   28      6.135298      6.135298     10.876500  18.0000  58.6934
     25    1 Ni   28      0.876298      2.629298     12.629500  18.0000  58.6934
     26    1 Ni   28      0.876298      6.135298     12.629500  18.0000  58.6934
     27    1 Ni   28      2.629298      0.876298     12.629500  18.0000  58.6934
     28    1 Ni   28      2.629298      4.382298     12.629500  18.0000  58.6934
     29    1 Ni   28      4.382298      2.629298     12.629500  18.0000  58.6934
     30    1 Ni   28      4.382298      6.135298     12.629500  18.0000  58.6934
     31    1 Ni   28      6.135298      0.876298     12.629500  18.0000  58.6934
     32    1 Ni   28      6.135298      4.382298     12.629500  18.0000  58.6934



 SCF PARAMETERS         Density guess:                                    ATOMIC
                        --------------------------------------------------------
                        max_scf:                                             500
                        max_scf_history:                                       0
                        max_diis:                                              4
                        --------------------------------------------------------
                        eps_scf:                                        1.00E-04
                        eps_scf_history:                                0.00E+00
                        eps_diis:                                       1.00E-01
                        eps_eigval:                                     1.00E-05
                        --------------------------------------------------------
                        level_shift [a.u.]:                             0.000000
                        added MOs                                       534  553
                        --------------------------------------------------------
                        Mixing method:                            BROYDEN_MIXING
                                                charge density mixing in g-space
                        --------------------------------------------------------
                        Smear method:                                FERMI_DIRAC
                        Electronic temperature [K]:                       2000.0
                        Electronic temperature [a.u.]:                  6.33E-03
                        Accuracy threshold:                             1.00E-10
                        --------------------------------------------------------
                        No outer SCF

 PW_GRID| Information for grid number                                          1
 PW_GRID| Grid distributed over                                   128 processors
 PW_GRID| Real space group dimensions                                     8   16
 PW_GRID| the grid is blocked:                                               YES
 PW_GRID| Cutoff [a.u.]                                                    300.0
 PW_GRID| spherical cutoff:                                                   NO
 PW_GRID|   Bounds   1            -54      53                Points:         108
 PW_GRID|   Bounds   2            -54      53                Points:         108
 PW_GRID|   Bounds   3           -150     149                Points:         300
 PW_GRID| Volume element (a.u.^3)  0.1896E-02     Volume (a.u.^3)      6635.2971
 PW_GRID| Grid span                                                    FULLSPACE
 PW_GRID|   Distribution                         Average         Max         Min
 PW_GRID|   G-Vectors                            27337.5       28728       25272
 PW_GRID|   G-Rays                                 253.1         266         234
 PW_GRID|   Real Space Points                    27337.5       28728       25272

 PW_GRID| Information for grid number                                          2
 PW_GRID| Number of the reference grid                                         1
 PW_GRID| Grid distributed over                                   128 processors
 PW_GRID| Real space group dimensions                                     8   16
 PW_GRID| the grid is blocked:                                                NO
 PW_GRID| Cutoff [a.u.]                                                    100.0
 PW_GRID| spherical cutoff:                                                   NO
 PW_GRID|   Bounds   1            -30      29                Points:          60
 PW_GRID|   Bounds   2            -30      29                Points:          60
 PW_GRID|   Bounds   3            -90      89                Points:         180
 PW_GRID| Volume element (a.u.^3)  0.1024E-01     Volume (a.u.^3)      6635.2971
 PW_GRID| Grid span                                                    FULLSPACE
 PW_GRID|   Distribution                         Average         Max         Min
 PW_GRID|   G-Vectors                             5062.5       15960           0
 PW_GRID|   G-Rays                                  84.4         266           0
 PW_GRID|   Real Space Points                     5062.5        5760        3780

 PW_GRID| Information for grid number                                          3
 PW_GRID| Number of the reference grid                                         1
 PW_GRID| Grid distributed over                                   128 processors
 PW_GRID| Real space group dimensions                                     8   16
 PW_GRID| the grid is blocked:                                                NO
 PW_GRID| Cutoff [a.u.]                                                     33.3
 PW_GRID| spherical cutoff:                                                   NO
 PW_GRID|   Bounds   1            -18      17                Points:          36
 PW_GRID|   Bounds   2            -18      17                Points:          36
 PW_GRID|   Bounds   3            -50      49                Points:         100
 PW_GRID| Volume element (a.u.^3)  0.5120E-01     Volume (a.u.^3)      6635.2971
 PW_GRID| Grid span                                                    FULLSPACE
 PW_GRID|   Distribution                         Average         Max         Min
 PW_GRID|   G-Vectors                             1012.5        9576           0
 PW_GRID|   G-Rays                                  28.1         266           0
 PW_GRID|   Real Space Points                     1012.5        1500         800

 PW_GRID| Information for grid number                                          4
 PW_GRID| Number of the reference grid                                         1
 PW_GRID| Grid distributed over                                   128 processors
 PW_GRID| Real space group dimensions                                     8   16
 PW_GRID| the grid is blocked:                                                NO
 PW_GRID| Cutoff [a.u.]                                                     11.1
 PW_GRID| spherical cutoff:                                                   NO
 PW_GRID|   Bounds   1            -10       9                Points:          20
 PW_GRID|   Bounds   2            -10       9                Points:          20
 PW_GRID|   Bounds   3            -30      29                Points:          60
 PW_GRID| Volume element (a.u.^3)  0.2765         Volume (a.u.^3)      6635.2971
 PW_GRID| Grid span                                                    FULLSPACE
 PW_GRID|   Distribution                         Average         Max         Min
 PW_GRID|   G-Vectors                              187.5        3800           0
 PW_GRID|   G-Rays                                   9.4         190           0
 PW_GRID|   Real Space Points                      187.5         360         120

 PW_GRID| Information for grid number                                          5
 PW_GRID| Number of the reference grid                                         1
 PW_GRID| Grid distributed over                                   128 processors
 PW_GRID| Real space group dimensions                                     8   16
 PW_GRID| the grid is blocked:                                                NO
 PW_GRID| Cutoff [a.u.]                                                      3.7
 PW_GRID| spherical cutoff:                                                   NO
 PW_GRID|   Bounds   1             -6       5                Points:          12
 PW_GRID|   Bounds   2             -6       5                Points:          12
 PW_GRID|   Bounds   3            -18      17                Points:          36
 PW_GRID| Volume element (a.u.^3)   1.280         Volume (a.u.^3)      6635.2971
 PW_GRID| Grid span                                                    FULLSPACE
 PW_GRID|   Distribution                         Average         Max         Min
 PW_GRID|   G-Vectors                               40.5        1296           0
 PW_GRID|   G-Rays                                   3.4         108           0
 PW_GRID|   Real Space Points                       40.5          72           0

 POISSON| Solver                                                        PERIODIC
 POISSON| Periodicity                                                        XYZ

 RS_GRID| Information for grid number                                          1
 RS_GRID|   Bounds   1            -54      53                Points:         108
 RS_GRID|   Bounds   2            -54      53                Points:         108
 RS_GRID|   Bounds   3           -150     149                Points:         300
 RS_GRID| Real space distribution over                                  8 groups
 RS_GRID| Real space distribution along direction                              2
 RS_GRID| Border size                                                         28
 RS_GRID| Real space distribution over                                 16 groups
 RS_GRID| Real space distribution along direction                              3
 RS_GRID| Border size                                                         28
 RS_GRID|   Distribution                         Average         Max         Min
 RS_GRID|   Planes                                  69.5          70          69
 RS_GRID|   Distribution                         Average         Max         Min
 RS_GRID|   Planes                                  74.8          75          74

 RS_GRID| Information for grid number                                          2
 RS_GRID|   Bounds   1            -30      29                Points:          60
 RS_GRID|   Bounds   2            -30      29                Points:          60
 RS_GRID|   Bounds   3            -90      89                Points:         180
 RS_GRID| Real space fully replicated
 RS_GRID| Group size                                                           1

 RS_GRID| Information for grid number                                          3
 RS_GRID|   Bounds   1            -18      17                Points:          36
 RS_GRID|   Bounds   2            -18      17                Points:          36
 RS_GRID|   Bounds   3            -50      49                Points:         100
 RS_GRID| Real space fully replicated
 RS_GRID| Group size                                                           1

 RS_GRID| Information for grid number                                          4
 RS_GRID|   Bounds   1            -10       9                Points:          20
 RS_GRID|   Bounds   2            -10       9                Points:          20
 RS_GRID|   Bounds   3            -30      29                Points:          60
 RS_GRID| Real space fully replicated
 RS_GRID| Group size                                                           1

 RS_GRID| Information for grid number                                          5
 RS_GRID|   Bounds   1             -6       5                Points:          12
 RS_GRID|   Bounds   2             -6       5                Points:          12
 RS_GRID|   Bounds   3            -18      17                Points:          36
 RS_GRID| Real space fully replicated
 RS_GRID| Group size                                                           1

 Spin 1

 Number of electrons:                                                        297.600
 Number of occupied orbitals:                                                298
 Number of molecular orbitals:                                               832

 Spin 2

 Number of electrons:                                                        278.400
 Number of occupied orbitals:                                                279
 Number of molecular orbitals:                                               832

 Number of orbital functions:                                                832
 Number of independent orbital functions:                                    832

 Extrapolation method: initial_guess

 Atomic guess: The first density matrix is obtained in terms of atomic orbitals
               and electronic configurations assigned to each atomic kind

 Guess for atomic kind: Ni_i

 Electronic structure
    Total number of core electrons                                         10.00
    Total number of valence electrons                                      18.00
    Total number of electrons                                              28.00
    Multiplicity                                                         doublet
    Alpha Electrons
    S   [  1.00  1.00] 1.00  1.00
    P   [  3.00] 3.00
    D      4.35
    Beta Electrons
    S   [  1.00  1.00] 1.00  1.00
    P   [  3.00] 3.00
    D      3.65


 *******************************************************************************
                  Iteration          Convergence                     Energy [au]
 *******************************************************************************
                          1         1.51729                    -167.067424631347
                          2         15.3902                    -156.642654318634
                          3         2.33433                    -168.319355313541
                          4        0.206730                    -168.609905008081
                          5        0.814175E-01                -168.612873080494
                          6        0.173318E-01                -168.613470181066
                          7        0.290432E-02                -168.613543571401
                          8        0.311825E-02                -168.613543401474
                          9        0.179670E-03                -168.613544404477
                         10        0.169386E-02                -168.613544207811
                         11        0.473341E-03                -168.613544360253
                         12        0.165417E-03                -168.613544400419
                         13        0.162622E-03                -168.613544401489
                         14        0.158325E-03                -168.613544403900
                         15        0.177007E-03                -168.613544402509
                         16        0.138916E-03                -168.613544404900
                         17        0.934549E-04                -168.613544406149
                         18        0.119916E-03                -168.613544405789
                         19        0.131607E-03                -168.613544405591
                         20        0.169309E-03                -168.613544404773
                         21        0.551337E-04                -168.613544406656
                         22        0.382664E-04                -168.613544406759
                         23        0.378942E-04                -168.613544406765
                         24        0.381089E-04                -168.613544406765
                         25        0.390835E-04                -168.613544406759
                         26        0.308614E-04                -168.613544406841
                         27        0.205044E-04                -168.613544406892
                         28        0.200942E-04                -168.613544406893
                         29        0.199375E-04                -168.613544406893
                         30        0.200198E-04                -168.613544406894
                         31        0.161325E-04                -168.613544406903
                         32        0.330614E-05                -168.613544406925
                         33        0.238713E-05                -168.613544406926
                         34        0.265439E-05                -168.613544406926
                         35        0.277073E-05                -168.613544406926
                         36        0.335175E-05                -168.613544406926
                         37        0.148809E-05                -168.613544406927
                         38        0.133447E-05                -168.613544406927
                         39        0.918735E-06                -168.613544406927

 Energy components [Hartree]           Total Energy ::         -168.613544406927
                                        Band Energy ::          -26.569761966525
                                     Kinetic Energy ::           97.306723392622
                                   Potential Energy ::         -265.920267799548
                                      Virial (-V/T) ::            2.732804666812
                                        Core Energy ::         -299.567979157577
                                          XC Energy ::          -16.227189041387
                                     Coulomb Energy ::          147.181623792037
                       Total Pseudopotential Energy ::         -396.961043505191
                       Local Pseudopotential Energy ::         -362.648291121960
                    Nonlocal Pseudopotential Energy ::          -34.312752383230
                                        Confinement ::            0.863409549921

 Orbital energies  State     Spin  L     Occupation   Energy[a.u.]    Energy[eV]

                       1    alpha  0          1.000      -4.172666   -113.544030
                       2    alpha  0          1.000      -0.181431     -4.936983
                       1     beta  0          1.000      -4.140640   -112.672541
                       2     beta  0          1.000      -0.176372     -4.799339

                       1    alpha  1          3.000      -2.578739    -70.171064
                       1     beta  1          3.000      -2.547579    -69.323162

                       1    alpha  2          4.350      -0.327039     -8.899191
                       1     beta  2          3.650      -0.300569     -8.178887


 Total Electron Density at R=0:                                         0.030422

 Guess for atomic kind: Ni_b

 Electronic structure
    Total number of core electrons                                         10.00
    Total number of valence electrons                                      18.00
    Total number of electrons                                              28.00
    Multiplicity                                                         doublet
    Alpha Electrons
    S   [  1.00  1.00] 1.00  1.00
    P   [  3.00] 3.00
    D      4.25
    Beta Electrons
    S   [  1.00  1.00] 1.00  1.00
    P   [  3.00] 3.00
    D      3.75


 *******************************************************************************
                  Iteration          Convergence                     Energy [au]
 *******************************************************************************
                          1         1.51687                    -167.065012761055
                          2         14.9817                    -156.620431300845
                          3         2.25575                    -168.317311438693
                          4        0.189210                    -168.607926092750
                          5        0.708658E-01                -168.610773319290
                          6        0.122256E-01                -168.611238205502
                          7        0.598421E-02                -168.611272268995
                          8        0.528277E-02                -168.611272438110
                          9        0.104644E-02                -168.611275321653
                         10        0.260234E-02                -168.611274926630
                         11        0.975322E-03                -168.611275328217
                         12        0.161067E-03                -168.611275447773
                         13        0.147413E-03                -168.611275446839
                         14        0.115114E-03                -168.611275449434
                         15        0.167217E-03                -168.611275445436
                         16        0.255374E-04                -168.611275450531
                         17        0.418369E-04                -168.611275450414
                         18        0.393709E-04                -168.611275450477
                         19        0.239931E-04                -168.611275450542
                         20        0.173885E-04                -168.611275450557
                         21        0.851368E-05                -168.611275450578
                         22        0.849928E-05                -168.611275450580
                         23        0.544937E-05                -168.611275450584
                         24        0.540003E-05                -168.611275450586
                         25        0.613371E-05                -168.611275450584
                         26        0.311593E-06                -168.611275450588

 Energy components [Hartree]           Total Energy ::         -168.611275450588
                                        Band Energy ::          -26.568680144499
                                     Kinetic Energy ::           97.303659243130
                                   Potential Energy ::         -265.914934693718
                                      Virial (-V/T) ::            2.732835915546
                                        Core Energy ::         -299.566189183323
                                          XC Energy ::          -16.224592878785
                                     Coulomb Energy ::          147.179506611520
                       Total Pseudopotential Energy ::         -396.956189041778
                       Local Pseudopotential Energy ::         -362.645043136649
                    Nonlocal Pseudopotential Energy ::          -34.311145905129
                                        Confinement ::            0.863406153250

 Orbital energies  State     Spin  L     Occupation   Energy[a.u.]    Energy[eV]

                       1    alpha  0          1.000      -4.168335   -113.426177
                       2    alpha  0          1.000      -0.180730     -4.917906
                       1     beta  0          1.000      -4.145459   -112.803683
                       2     beta  0          1.000      -0.177117     -4.819606

                       1    alpha  1          3.000      -2.574525    -70.056390
                       1     beta  1          3.000      -2.552268    -69.450746

                       1    alpha  2          4.250      -0.323446     -8.801405
                       1     beta  2          3.750      -0.304537     -8.286881


 Total Electron Density at R=0:                                         0.030429

 Spin 1
 Re-scaling the density matrix to get the right number of electrons for spin 1
                  # Electrons              Trace(P)               Scaling factor
                        297.600             297.600                        1.000

 Spin 2
 Re-scaling the density matrix to get the right number of electrons for spin 2
                  # Electrons              Trace(P)               Scaling factor
                        278.400             278.400                        1.000


 SCF WAVEFUNCTION OPTIMIZATION

  Step     Update method      Time    Convergence         Total energy    Change
  ------------------------------------------------------------------------------
     1 NoMix/Diag. 0.10E+00    2.6     0.87318318     -5426.4441344177 -5.43E+03
     2 Broy./Diag. 0.10E+00    1.5     0.10207148     -5321.5806100805  1.05E+02
[...]
   136 Broy./Diag. 0.10E+00    1.5     0.10473054     -5417.6807877930 -2.65E-02
   137 Broy./Diag. 0.10E+00    1.5     0.04179807     -5417.8409183852 -1.60E-01
   138 Broy./Diag. 0.10E+00    1.5     0.07855989     -5417.7644599002  7.65E-02
   139 Broy./Diag. 0.10E+00    1.5     0.05447641     -5417.8394595803 -7.50E-02
   140 Broy./Diag. 0.10E+00    1.5     0.13445211     -5417.8269496027  1.25E-02
   141 Broy./Diag. 0.10E+00    1.5     0.04601807     -5417.9605883696 -1.34E-01
   142 Broy./Diag. 0.10E+00    1.5     0.09945629     -5417.7553646107  2.05E-01
   143 Broy./Diag. 0.10E+00    1.5     0.07436089     -5418.3523747571 -5.97E-01
   144 Broy./Diag. 0.10E+00    1.5     0.11168093     -5417.9840640796  3.68E-01
   145 Broy./Diag. 0.10E+00    1.5     0.07737767     -5417.9206888470  6.34E-02
   146 Broy./Diag. 0.10E+00    1.5     0.04351153     -5417.9219340863 -1.25E-03
   147 Broy./Diag. 0.10E+00    1.5     0.04166944     -5418.0041321653 -8.22E-02
   148 Broy./Diag. 0.10E+00    1.5     0.03883681     -5417.8455526706  1.59E-01
   149 Broy./Diag. 0.10E+00    1.5     0.09397582     -5417.8944605279 -4.89E-02
   150 Broy./Diag. 0.10E+00    1.5     0.07936770     -5417.9804384403 -8.60E-02
   151 Broy./Diag. 0.10E+00    1.5     0.15289802     -5417.8459562308  1.34E-01
   152 Broy./Diag. 0.10E+00    1.5     0.14503289     -5418.0004374770 -1.54E-01
   153 Broy./Diag. 0.10E+00    1.5     0.06292429     -5417.8597073709  1.41E-01
   154 Broy./Diag. 0.10E+00    1.5     0.08642614     -5418.0766690554 -2.17E-01
   155 Broy./Diag. 0.10E+00    1.5     0.01663886     -5417.6219184300  4.55E-01
   156 Broy./Diag. 0.10E+00    1.5     0.01087661     -5417.5205835312  1.01E-01
   157 Broy./Diag. 0.10E+00    1.5     0.04872127     -5417.5269007242 -6.32E-03
   158 Broy./Diag. 0.10E+00    1.5     0.03247990     -5417.5286204780 -1.72E-03
   159 Broy./Diag. 0.10E+00    1.5     0.04633030     -5417.4600442559  6.86E-02
   160 Broy./Diag. 0.10E+00    1.5     0.03576647     -5417.4120759429  4.80E-02
   161 Broy./Diag. 0.10E+00    1.5     0.07179028     -5417.4749758274 -6.29E-02
   162 Broy./Diag. 0.10E+00    1.5     0.16448229     -5417.5369698493 -6.20E-02
   163 Broy./Diag. 0.10E+00    1.5     0.04478498     -5417.2214365428  3.16E-01
   164 Broy./Diag. 0.10E+00    1.5     0.08203619     -5417.0833259605  1.38E-01
   165 Broy./Diag. 0.10E+00    1.5     0.02278966     -5417.1070437414 -2.37E-02
   166 Broy./Diag. 0.10E+00    1.5     0.05319643     -5417.0621491838  4.49E-02
   167 Broy./Diag. 0.10E+00    1.5     0.03222154     -5417.4979700200 -4.36E-01
   168 Broy./Diag. 0.10E+00    1.5     0.10292426     -5417.6771339834 -1.79E-01
   169 Broy./Diag. 0.10E+00    1.5     0.08017657     -5417.9120379982 -2.35E-01
   170 Broy./Diag. 0.10E+00    1.5     0.06660243     -5418.3801321030 -4.68E-01
   171 Broy./Diag. 0.10E+00    1.5     0.03364353     -5418.3476270452  3.25E-02
   172 Broy./Diag. 0.10E+00    1.5     0.01797718     -5418.3404183582  7.21E-03
   173 Broy./Diag. 0.10E+00    1.5     0.13821649     -5418.2626081764  7.78E-02
   174 Broy./Diag. 0.10E+00    1.5     0.10488737     -5418.0556244500  2.07E-01
   175 Broy./Diag. 0.10E+00    1.5     0.08464396     -5417.7508375622  3.05E-01
   176 Broy./Diag. 0.10E+00    1.5     0.04770678     -5417.7868718043 -3.60E-02
   177 Broy./Diag. 0.10E+00    1.5     0.04681989     -5417.7014986498  8.54E-02
   178 Broy./Diag. 0.10E+00    1.5     0.08850687     -5417.8696240343 -1.68E-01
   179 Broy./Diag. 0.10E+00    1.5     0.12200335     -5417.8537226994  1.59E-02
   180 Broy./Diag. 0.10E+00    1.5     0.07355450     -5418.2338151815 -3.80E-01
   181 Broy./Diag. 0.10E+00    1.5     0.06047533     -5418.0180409876  2.16E-01
   182 Broy./Diag. 0.10E+00    1.5     0.04559173     -5417.9927348176  2.53E-02
   183 Broy./Diag. 0.10E+00    1.5     0.03665725     -5418.0341671941 -4.14E-02
   184 Broy./Diag. 0.10E+00    1.5     0.09663913     -5417.8812050324  1.53E-01
   185 Broy./Diag. 0.10E+00    1.5     0.13501310     -5418.0440955636 -1.63E-01
   186 Broy./Diag. 0.10E+00    1.5     0.07001175     -5417.8411755439  2.03E-01
   187 Broy./Diag. 0.10E+00    1.5     0.09564402     -5417.7472541487  9.39E-02
   188 Broy./Diag. 0.10E+00    1.5     0.08094666     -5417.7815140560 -3.43E-02
   189 Broy./Diag. 0.10E+00    1.5     0.09371264     -5418.0060279006 -2.25E-01
   190 Broy./Diag. 0.10E+00    1.5     0.06592795     -5417.6240094795  3.82E-01
   191 Broy./Diag. 0.10E+00    1.5     0.05111986     -5418.3011854009 -6.77E-01
   192 Broy./Diag. 0.10E+00    1.5     0.04277134     -5418.0102957100  2.91E-01
   193 Broy./Diag. 0.10E+00    1.5     0.08387011     -5418.1910006100 -1.81E-01
   194 Broy./Diag. 0.10E+00    1.5     0.08792411     -5418.0539247190  1.37E-01
   195 Broy./Diag. 0.10E+00    1.5     0.06888900     -5418.3234623302 -2.70E-01
   196 Broy./Diag. 0.10E+00    1.5     0.29171092     -5417.9840092267  3.39E-01
   197 Broy./Diag. 0.10E+00    1.5     0.25750477     -5418.5835796856 -6.00E-01
   198 Broy./Diag. 0.10E+00    1.5     0.06691385     -5417.8457004888  7.38E-01
   199 Broy./Diag. 0.10E+00    1.5     0.04053468     -5417.4649458030  3.81E-01
   200 Broy./Diag. 0.10E+00    1.5     0.04105192     -5417.6557362850 -1.91E-01
   201 Broy./Diag. 0.10E+00    1.5     0.08403519     -5417.4475066217  2.08E-01
   202 Broy./Diag. 0.10E+00    1.5     0.04467641     -5416.9958758505  4.52E-01
   203 Broy./Diag. 0.10E+00    1.5     0.03832703     -5416.9048077203  9.11E-02
   204 Broy./Diag. 0.10E+00    1.5     0.03843687     -5416.8684652671  3.63E-02
   205 Broy./Diag. 0.10E+00    1.5     0.02684804     -5416.8799959481 -1.15E-02
   206 Broy./Diag. 0.10E+00    1.5     0.23605891     -5416.8766350524  3.36E-03
   207 Broy./Diag. 0.10E+00    1.5     0.11699129     -5416.8032013506  7.34E-02
   208 Broy./Diag. 0.10E+00    1.5     0.11662828     -5417.0921784587 -2.89E-01
   209 Broy./Diag. 0.10E+00    1.5     0.03373386     -5417.4582378363 -3.66E-01
   210 Broy./Diag. 0.10E+00    1.5     0.09377418     -5417.7196626544 -2.61E-01
   211 Broy./Diag. 0.10E+00    1.5     0.22266411     -5417.4332581659  2.86E-01
   212 Broy./Diag. 0.10E+00    1.5     0.11011434     -5417.9961849273 -5.63E-01
   213 Broy./Diag. 0.10E+00    1.5     0.08560028     -5417.9117233192  8.45E-02
   214 Broy./Diag. 0.10E+00    1.5     0.06611924     -5417.7371169030  1.75E-01
   215 Broy./Diag. 0.10E+00    1.5     0.14465942     -5417.5251621818  2.12E-01
   216 Broy./Diag. 0.10E+00    1.5     0.08816074     -5417.6322831500 -1.07E-01
   217 Broy./Diag. 0.10E+00    1.5     0.16620174     -5417.6270812206  5.20E-03
   218 Broy./Diag. 0.10E+00    1.5     0.04464724     -5418.6099504491 -9.83E-01
   219 Broy./Diag. 0.10E+00    1.5     0.08484299     -5418.9420027456 -3.32E-01
   220 Broy./Diag. 0.10E+00    1.5     0.08676670     -5418.8087717072  1.33E-01
   221 Broy./Diag. 0.10E+00    1.5     0.12753596     -5419.0203974719 -2.12E-01
   222 Broy./Diag. 0.10E+00    1.5     0.11674757     -5418.4823566787  5.38E-01
   223 Broy./Diag. 0.10E+00    1.5     0.15427194     -5418.0302736145  4.52E-01
   224 Broy./Diag. 0.10E+00    1.5     0.08465472     -5417.7431299552  2.87E-01
   225 Broy./Diag. 0.10E+00    1.5     0.05076953     -5417.6376101980  1.06E-01
   226 Broy./Diag. 0.10E+00    1.5     0.08785366     -5417.5833477398  5.43E-02
   227 Broy./Diag. 0.10E+00    1.5     0.20843029     -5417.3627027984  2.21E-01
   228 Broy./Diag. 0.10E+00    1.5     0.09352179     -5417.8419934000 -4.79E-01
   229 Broy./Diag. 0.10E+00    1.5     0.07598792     -5418.0844330284 -2.42E-01
   230 Broy./Diag. 0.10E+00    1.5     0.11226702     -5417.9458956660  1.39E-01
   231 Broy./Diag. 0.10E+00    1.5     0.16300792     -5418.3312022540 -3.85E-01
   232 Broy./Diag. 0.10E+00    1.5     0.17300098     -5418.2065379918  1.25E-01
   233 Broy./Diag. 0.10E+00    1.5     0.09347043     -5418.2359247449 -2.94E-02
   234 Broy./Diag. 0.10E+00    1.5     0.12799229     -5417.8729862056  3.63E-01
   235 Broy./Diag. 0.10E+00    1.5     0.15331583     -5417.7352103950  1.38E-01
   236 Broy./Diag. 0.10E+00    1.5     0.17869372     -5417.9101740030 -1.75E-01
   237 Broy./Diag. 0.10E+00    1.5     0.09463264     -5417.8672869242  4.29E-02
   238 Broy./Diag. 0.10E+00    1.5     0.04240438     -5417.9016386471 -3.44E-02
   239 Broy./Diag. 0.10E+00    1.5     0.03470184     -5417.6238695245  2.78E-01
   240 Broy./Diag. 0.10E+00    1.5     0.04938039     -5417.9730532775 -3.49E-01
   241 Broy./Diag. 0.10E+00    1.5     0.01727760     -5418.0125197308 -3.95E-02
   242 Broy./Diag. 0.10E+00    1.5     0.05378289     -5418.0278825276 -1.54E-02
   243 Broy./Diag. 0.10E+00    1.5     0.09890991     -5418.0586518526 -3.08E-02
   244 Broy./Diag. 0.10E+00    1.5     0.09405813     -5418.0157843223  4.29E-02
   245 Broy./Diag. 0.10E+00    1.5     0.08771196     -5417.6953687506  3.20E-01
   246 Broy./Diag. 0.10E+00    1.5     0.07196642     -5417.7147479757 -1.94E-02
   247 Broy./Diag. 0.10E+00    1.5     0.05125145     -5417.7482561995 -3.35E-02
   248 Broy./Diag. 0.10E+00    1.5     0.19070741     -5417.7688240584 -2.06E-02
   249 Broy./Diag. 0.10E+00    1.5     0.18303657     -5418.0187900803 -2.50E-01
   250 Broy./Diag. 0.10E+00    1.5     0.17517321     -5417.7833873846  2.35E-01
   251 Broy./Diag. 0.10E+00    1.5     0.12970612     -5417.8730540588 -8.97E-02
   252 Broy./Diag. 0.10E+00    1.5     0.10640867     -5418.1200927333 -2.47E-01
   253 Broy./Diag. 0.10E+00    1.5     0.24293937     -5417.9864213996  1.34E-01
   254 Broy./Diag. 0.10E+00    1.5     0.16956703     -5417.8940785698  9.23E-02
   255 Broy./Diag. 0.10E+00    1.5     0.09138293     -5417.3701023020  5.24E-01
   256 Broy./Diag. 0.10E+00    1.5     0.08411156     -5417.2376316444  1.32E-01
   257 Broy./Diag. 0.10E+00    1.5     0.10918163     -5417.8310915532 -5.93E-01
   258 Broy./Diag. 0.10E+00    1.5     0.11066143     -5417.7584349315  7.27E-02
   259 Broy./Diag. 0.10E+00    1.5     0.23633852     -5417.4796978047  2.79E-01
   260 Broy./Diag. 0.10E+00    1.5     0.29271289     -5417.0108772834  4.69E-01
   261 Broy./Diag. 0.10E+00    1.5     0.17189317     -5418.9658662193 -1.95E+00
   262 Broy./Diag. 0.10E+00    1.5     0.09357665     -5418.0597371963  9.06E-01
   263 Broy./Diag. 0.10E+00    1.5     0.12186113     -5417.8630119122  1.97E-01
   264 Broy./Diag. 0.10E+00    1.5     0.15495571     -5417.7981297016  6.49E-02
   265 Broy./Diag. 0.10E+00    1.5     0.23751392     -5418.0758223206 -2.78E-01
   266 Broy./Diag. 0.10E+00    1.5     0.09919952     -5418.2590287365 -1.83E-01
   267 Broy./Diag. 0.10E+00    1.5     0.08589392     -5417.7020503691  5.57E-01
   268 Broy./Diag. 0.10E+00    1.5     0.06222200     -5417.8719818361 -1.70E-01
   269 Broy./Diag. 0.10E+00    1.5     0.04517913     -5417.7945590180  7.74E-02
   270 Broy./Diag. 0.10E+00    1.5     0.19274401     -5417.9785925466 -1.84E-01
   271 Broy./Diag. 0.10E+00    1.5     0.22303694     -5417.6361316799  3.42E-01
   272 Broy./Diag. 0.10E+00    1.5     0.05662915     -5417.8063254249 -1.70E-01
   273 Broy./Diag. 0.10E+00    1.5     0.13613209     -5418.1245894951 -3.18E-01
   274 Broy./Diag. 0.10E+00    1.5     0.10552305     -5418.0468721086  7.77E-02
   275 Broy./Diag. 0.10E+00    1.5     0.12915380     -5417.8665732640  1.80E-01
   276 Broy./Diag. 0.10E+00    1.5     0.03996526     -5417.7744993209  9.21E-02
   277 Broy./Diag. 0.10E+00    1.5     0.05565036     -5417.8186783812 -4.42E-02
   278 Broy./Diag. 0.10E+00    1.5     0.22374085     -5417.8373918535 -1.87E-02
   279 Broy./Diag. 0.10E+00    1.5     0.03686289     -5417.6809243937  1.56E-01
   280 Broy./Diag. 0.10E+00    1.5     0.14064357     -5417.8024000747 -1.21E-01
   281 Broy./Diag. 0.10E+00    1.5     0.28716396     -5417.8781004731 -7.57E-02
   282 Broy./Diag. 0.10E+00    1.5     0.16203218     -5418.4127871890 -5.35E-01
   283 Broy./Diag. 0.10E+00    1.5     0.06801391     -5418.6545849232 -2.42E-01
   284 Broy./Diag. 0.10E+00    1.5     0.06137860     -5418.4151637817  2.39E-01
   285 Broy./Diag. 0.10E+00    1.5     0.09294280     -5418.5042155805 -8.91E-02
   286 Broy./Diag. 0.10E+00    1.5     0.13813776     -5418.4643837394  3.98E-02
   287 Broy./Diag. 0.10E+00    1.5     0.08286535     -5418.3074877584  1.57E-01
   288 Broy./Diag. 0.10E+00    1.5     0.21317719     -5418.3140292124 -6.54E-03
   289 Broy./Diag. 0.10E+00    1.5     0.11457726     -5418.6405699472 -3.27E-01
   290 Broy./Diag. 0.10E+00    1.5     0.35510530     -5418.3390458052  3.02E-01
   291 Broy./Diag. 0.10E+00    1.5     0.14652497     -5417.7519397388  5.87E-01
   292 Broy./Diag. 0.10E+00    1.5     0.14635153     -5418.4741035444 -7.22E-01
   293 Broy./Diag. 0.10E+00    1.5     0.12697967     -5418.2330975920  2.41E-01
   294 Broy./Diag. 0.10E+00    1.5     0.11052915     -5418.1736122996  5.95E-02
   295 Broy./Diag. 0.10E+00    1.5     0.32293796     -5418.2698552755 -9.62E-02
   296 Broy./Diag. 0.10E+00    1.5     0.24861513     -5418.9754479371 -7.06E-01
   297 Broy./Diag. 0.10E+00    1.5     0.08350722     -5418.3641107424  6.11E-01
   298 Broy./Diag. 0.10E+00    1.5     0.09524007     -5418.1052202768  2.59E-01
   299 Broy./Diag. 0.10E+00    1.5     0.23354760     -5418.5793720512 -4.74E-01
   300 Broy./Diag. 0.10E+00    1.5     0.08397116     -5418.2803307394  2.99E-01
   301 Broy./Diag. 0.10E+00    1.5     0.08731089     -5417.9327213406  3.48E-01
   302 Broy./Diag. 0.10E+00    1.5     0.28955975     -5417.9980435128 -6.53E-02
   303 Broy./Diag. 0.10E+00    1.5     0.06185057     -5418.3135783875 -3.16E-01
   304 Broy./Diag. 0.10E+00    1.5     0.02868151     -5418.0844397309  2.29E-01
   305 Broy./Diag. 0.10E+00    1.5     0.16222029     -5418.2446676438 -1.60E-01
   306 Broy./Diag. 0.10E+00    1.5     0.10667393     -5418.3909002867 -1.46E-01
   307 Broy./Diag. 0.10E+00    1.5     0.20346670     -5418.3873559855  3.54E-03
   308 Broy./Diag. 0.10E+00    1.5     0.14630525     -5418.3756674164  1.17E-02
   309 Broy./Diag. 0.10E+00    1.5     0.07106610     -5418.5298945703 -1.54E-01
   310 Broy./Diag. 0.10E+00    1.5     0.16288016     -5418.3184542754  2.11E-01
   311 Broy./Diag. 0.10E+00    1.5     0.20928361     -5418.2075516396  1.11E-01
   312 Broy./Diag. 0.10E+00    1.5     0.25376627     -5418.9220298632 -7.14E-01
   313 Broy./Diag. 0.10E+00    1.5     0.17782134     -5418.3995199822  5.23E-01
   314 Broy./Diag. 0.10E+00    1.5     0.13494728     -5417.7162144424  6.83E-01
   315 Broy./Diag. 0.10E+00    1.5     0.63037226     -5418.0535314786 -3.37E-01
   316 Broy./Diag. 0.10E+00    1.5     0.56860337     -5419.4721763659 -1.42E+00
   317 Broy./Diag. 0.10E+00    1.5     0.29228379     -5419.7483509308 -2.76E-01
   318 Broy./Diag. 0.10E+00    1.5     0.34849109     -5420.8271198549 -1.08E+00
   319 Broy./Diag. 0.10E+00    1.5     0.43206991     -5418.1227453284  2.70E+00
   320 Broy./Diag. 0.10E+00    1.5     0.40927794     -5419.0022215976 -8.79E-01
   321 Broy./Diag. 0.10E+00    1.5     0.12294280     -5417.9122041261  1.09E+00
   322 Broy./Diag. 0.10E+00    1.5     0.14844702     -5418.5007155059 -5.89E-01
   323 Broy./Diag. 0.10E+00    1.5     0.23157560     -5418.5865841647 -8.59E-02
   324 Broy./Diag. 0.10E+00    1.5     0.17432493     -5418.3722793067  2.14E-01
   325 Broy./Diag. 0.10E+00    1.5     0.16988124     -5418.8949293261 -5.23E-01
   326 Broy./Diag. 0.10E+00    1.5     0.15418153     -5418.9806301691 -8.57E-02
   327 Broy./Diag. 0.10E+00    1.5     0.05508230     -5418.6623542579  3.18E-01
   328 Broy./Diag. 0.10E+00    1.5     0.09267544     -5418.6981218452 -3.58E-02
   329 Broy./Diag. 0.10E+00    1.5     0.39529549     -5418.9227591543 -2.25E-01
   330 Broy./Diag. 0.10E+00    1.5     0.51389667     -5418.5335041021  3.89E-01
   331 Broy./Diag. 0.10E+00    1.5     0.18108409     -5419.2752183477 -7.42E-01
   332 Broy./Diag. 0.10E+00    1.5     0.15218212     -5419.2950903048 -1.99E-02
   333 Broy./Diag. 0.10E+00    1.5     0.07680054     -5419.4318510755 -1.37E-01
   334 Broy./Diag. 0.10E+00    1.5     0.35169084     -5420.0381321514 -6.06E-01
   335 Broy./Diag. 0.10E+00    1.5     0.41111482     -5419.2912456613  7.47E-01
   336 Broy./Diag. 0.10E+00    1.5     0.33732819     -5420.1400063088 -8.49E-01
   337 Broy./Diag. 0.10E+00    1.5     0.26299886     -5419.5624265216  5.78E-01
   338 Broy./Diag. 0.10E+00    1.5     0.20763778     -5418.5794987208  9.83E-01
   339 Broy./Diag. 0.10E+00    1.5     0.24117209     -5418.4036403409  1.76E-01
   340 Broy./Diag. 0.10E+00    1.5     0.28737647     -5417.5403925258  8.63E-01
   341 Broy./Diag. 0.10E+00    1.5     0.15883773     -5418.9939429937 -1.45E+00
   342 Broy./Diag. 0.10E+00    1.5     0.42291744     -5419.2194679087 -2.26E-01
   343 Broy./Diag. 0.10E+00    1.5     0.39833175     -5420.8161562393 -1.60E+00
   344 Broy./Diag. 0.10E+00    1.5     0.28854388     -5419.1488784728  1.67E+00
   345 Broy./Diag. 0.10E+00    1.5     0.25773729     -5418.4404789952  7.08E-01
   346 Broy./Diag. 0.10E+00    1.5     0.08302823     -5417.0444706895  1.40E+00
   347 Broy./Diag. 0.10E+00    1.5     0.08611364     -5416.9340659856  1.10E-01
   348 Broy./Diag. 0.10E+00    1.5     0.13129851     -5416.6215806241  3.12E-01
   349 Broy./Diag. 0.10E+00    1.5     0.34985443     -5416.3675479138  2.54E-01
   350 Broy./Diag. 0.10E+00    1.5     0.35644904     -5415.8992288475  4.68E-01
   351 Broy./Diag. 0.10E+00    1.5     0.31080008     -5417.3095061736 -1.41E+00
   352 Broy./Diag. 0.10E+00    1.5     0.40844092     -5416.3814051094  9.28E-01
   353 Broy./Diag. 0.10E+00    1.5     0.08209364     -5415.2219420239  1.16E+00
   354 Broy./Diag. 0.10E+00    1.5     0.54553909     -5415.0292085795  1.93E-01
   355 Broy./Diag. 0.10E+00    1.5     0.39613248     -5415.1873902143 -1.58E-01
   356 Broy./Diag. 0.10E+00    1.5     0.19686765     -5416.4290958607 -1.24E+00
   357 Broy./Diag. 0.10E+00    1.5     0.38259880     -5414.8146652525  1.61E+00
   358 Broy./Diag. 0.10E+00    1.5     0.32696968     -5417.2351734482 -2.42E+00
   359 Broy./Diag. 0.10E+00    1.5     0.33910345     -5416.6864718703  5.49E-01
   360 Broy./Diag. 0.10E+00    1.5     0.26609847     -5417.5959032744 -9.09E-01
   361 Broy./Diag. 0.10E+00    1.5     0.40558911     -5417.0672341086  5.29E-01
   362 Broy./Diag. 0.10E+00    1.5     0.56008326     -5417.0204998020  4.67E-02
   363 Broy./Diag. 0.10E+00    1.5     0.67364639     -5416.8845377241  1.36E-01
   364 Broy./Diag. 0.10E+00    1.5     0.33978617     -5418.2876066797 -1.40E+00
   365 Broy./Diag. 0.10E+00    1.5     0.10796525     -5419.1261796385 -8.39E-01
   366 Broy./Diag. 0.10E+00    1.5     0.17970559     -5418.7280258171  3.98E-01
   367 Broy./Diag. 0.10E+00    1.5     0.18772036     -5419.7839527484 -1.06E+00
   368 Broy./Diag. 0.10E+00    1.5     0.21641848     -5419.0903854024  6.94E-01
   369 Broy./Diag. 0.10E+00    1.5     0.45942710     -5419.2224169128 -1.32E-01
   370 Broy./Diag. 0.10E+00    1.5     0.14457613     -5418.8242908122  3.98E-01
   371 Broy./Diag. 0.10E+00    1.5     0.13943726     -5418.6888021127  1.35E-01
   372 Broy./Diag. 0.10E+00    1.5     0.41343510     -5418.6107810816  7.80E-02
   373 Broy./Diag. 0.10E+00    1.5     0.25560808     -5419.4273367330 -8.17E-01
   374 Broy./Diag. 0.10E+00    1.5     0.07681836     -5418.3216511502  1.11E+00
   375 Broy./Diag. 0.10E+00    1.5     0.18640919     -5418.9543500367 -6.33E-01
   376 Broy./Diag. 0.10E+00    1.5     0.10834399     -5419.1658462529 -2.11E-01
   377 Broy./Diag. 0.10E+00    1.5     0.17260222     -5419.1885909057 -2.27E-02
   378 Broy./Diag. 0.10E+00    1.5     0.21953983     -5419.2551664528 -6.66E-02
   379 Broy./Diag. 0.10E+00    1.5     0.30024798     -5419.5027689882 -2.48E-01
   380 Broy./Diag. 0.10E+00    1.5     0.05986997     -5419.3436309561  1.59E-01
   381 Broy./Diag. 0.10E+00    1.5     0.12262478     -5419.4852296392 -1.42E-01
