 DBCSR| CPU Multiplication driver                                           XSMM (U)
 DBCSR| Multrec recursion limit                                              512 (U)
 DBCSR| Multiplication stack size                                           1000 (D)
 DBCSR| Maximum elements for images                                    UNLIMITED (U)
 DBCSR| Multiplicative factor virtual images                                   1 (U)
 DBCSR| Use multiplication densification                                       T (D)
 DBCSR| Multiplication size stacks                                             3 (U)
 DBCSR| Use memory pool for CPU allocation                                     F (U)
 DBCSR| Number of 3D layers                                               SINGLE (U)
 DBCSR| Use MPI memory allocation                                              F (U)
 DBCSR| Use RMA algorithm                                                      F (U)
 DBCSR| Use Communication thread                                               T (U)
 DBCSR| Communication thread load                                             87 (D)
 DBCSR| MPI: My process id                                                     0
 DBCSR| MPI: Number of processes                                             128
 DBCSR| OMP: Current number of threads                                         1
 DBCSR| OMP: Max number of threads                                             1
 DBCSR| Split modifier for TAS multiplication algorithm                  1.0E+00 (U)


  **** **** ******  **  PROGRAM STARTED AT               2023-02-14 14:32:18.370
 ***** ** ***  *** **   PROGRAM STARTED ON                             nid004129
 **    ****   ******    PROGRAM STARTED BY                                cahart
 ***** **    ** ** **   PROGRAM PROCESS ID                                 58530
  **** **  *******  **  PROGRAM STARTED IN /mnt/lustre/a2fs-work2/work/e05/e05/c
                                           ahart/postdoc/masters/ni/archer2/slab
                                           /optimise/alpha-beta/scf_5e-4_mos-100
                                           0_temp-2000_spin-0.7-0.5_periodic-xyz
                                           /search/1.0E-1_1.0E-1

 CP2K| version string:                 CP2K version 2023.1 (Development Version)
 CP2K| source code revision number:                                  git:964cd58
 CP2K| cp2kflags: omp libint fftw3 libxc elpa parallel scalapack xsmm plumed2 mk
 CP2K|            l
 CP2K| is freely available from                            https://www.cp2k.org/
 CP2K| Program compiled at                          Mon 13 Feb 17:05:14 GMT 2023
 CP2K| Program compiled on                                                  ln01
 CP2K| Program compiled for                                              ARCHER2
 CP2K| Data directory path    /work/e05/e05/cahart/cp2k/cp2k-2023.1/cp2k-2023.1-
 CP2K| Input file name                                                  cp2k.inp

 GLOBAL| Force Environment number                                              1
 GLOBAL| Basis set file name                                        BASIS_MOLOPT
 GLOBAL| Potential file name                                      GTH_POTENTIALS
 GLOBAL| MM Potential file name                                     MM_POTENTIAL
 GLOBAL| Coordinate file name                                      __STD_INPUT__
 GLOBAL| Method name                                                        CP2K
 GLOBAL| Project name                                                    Ni_bulk
 GLOBAL| Run type                                                         ENERGY
 GLOBAL| FFT library                                                       FFTW3
 GLOBAL| Diagonalization library                                            ELPA
 GLOBAL| DGEMM library                                                      BLAS
 GLOBAL| Minimum number of eigenvectors for ELPA usage                        16
 GLOBAL| Orthonormality check for eigenvectors                          DISABLED
 GLOBAL| Matrix multiplication library                                 ScaLAPACK
 GLOBAL| All-to-all communication in single precision                          F
 GLOBAL| FFTs using library dependent lengths                                  F
 GLOBAL| Grid backend                                                       AUTO
 GLOBAL| Global print level                                               MEDIUM
 GLOBAL| MPI I/O enabled                                                       T
 GLOBAL| Total number of message passing processes                           128
 GLOBAL| Number of threads for this process                                    1
 GLOBAL| This output is from process                                           0
 GLOBAL| Stack size for threads created by OpenMP (OMP_STACKSIZE)        default
 GLOBAL| CPU model name                          AMD EPYC 7742 64-Core Processor
 GLOBAL| CPUID                                                              1002

 MEMORY| system memory details [Kb]
 MEMORY|                        rank 0           min           max       average
 MEMORY| MemTotal            263528084     263528084     263528084     263528084
 MEMORY| MemFree             239244852     239244852     239244852     239244852
 MEMORY| Buffers                 29300         29300         29300         29300
 MEMORY| Cached                 621980        621980        621980        621980
 MEMORY| Slab                  1527424       1527424       1527424       1527424
 MEMORY| SReclaimable           104348        104348        104348        104348
 MEMORY| MemLikelyFree       240000480     240000480     240000480     240000480


 *** Fundamental physical constants (SI units) ***

 *** Literature: B. J. Mohr and B. N. Taylor,
 ***             CODATA recommended values of the fundamental physical
 ***             constants: 2006, Web Version 5.1
 ***             http://physics.nist.gov/constants

 Speed of light in vacuum [m/s]                             2.99792458000000E+08
 Magnetic constant or permeability of vacuum [N/A**2]       1.25663706143592E-06
 Electric constant or permittivity of vacuum [F/m]          8.85418781762039E-12
 Planck constant (h) [J*s]                                  6.62606896000000E-34
 Planck constant (h-bar) [J*s]                              1.05457162825177E-34
 Elementary charge [C]                                      1.60217648700000E-19
 Electron mass [kg]                                         9.10938215000000E-31
 Electron g factor [ ]                                     -2.00231930436220E+00
 Proton mass [kg]                                           1.67262163700000E-27
 Fine-structure constant                                    7.29735253760000E-03
 Rydberg constant [1/m]                                     1.09737315685270E+07
 Avogadro constant [1/mol]                                  6.02214179000000E+23
 Boltzmann constant [J/K]                                   1.38065040000000E-23
 Atomic mass unit [kg]                                      1.66053878200000E-27
 Bohr radius [m]                                            5.29177208590000E-11

 *** Conversion factors ***

 [u] -> [a.u.]                                              1.82288848426455E+03
 [Angstrom] -> [Bohr] = [a.u.]                              1.88972613288564E+00
 [a.u.] = [Bohr] -> [Angstrom]                              5.29177208590000E-01
 [a.u.] -> [s]                                              2.41888432650478E-17
 [a.u.] -> [fs]                                             2.41888432650478E-02
 [a.u.] -> [J]                                              4.35974393937059E-18
 [a.u.] -> [N]                                              8.23872205491840E-08
 [a.u.] -> [K]                                              3.15774647902944E+05
 [a.u.] -> [kJ/mol]                                         2.62549961709828E+03
 [a.u.] -> [kcal/mol]                                       6.27509468713739E+02
 [a.u.] -> [Pa]                                             2.94210107994716E+13
 [a.u.] -> [bar]                                            2.94210107994716E+08
 [a.u.] -> [atm]                                            2.90362800883016E+08
 [a.u.] -> [eV]                                             2.72113838565563E+01
 [a.u.] -> [Hz]                                             6.57968392072181E+15
 [a.u.] -> [1/cm] (wave numbers)                            2.19474631370540E+05
 [a.u./Bohr**2] -> [1/cm]                                   5.14048714338585E+03
 

 CELL_TOP| Volume [angstrom^3]:                                       983.249569
 CELL_TOP| Vector a [angstrom     7.012     0.000     0.000   |a| =     7.011596
 CELL_TOP| Vector b [angstrom     0.000     7.012     0.000   |b| =     7.011596
 CELL_TOP| Vector c [angstrom     0.000     0.000    20.000   |c| =    20.000000
 CELL_TOP| Angle (b,c), alpha [degree]:                                90.000000
 CELL_TOP| Angle (a,c), beta  [degree]:                                90.000000
 CELL_TOP| Angle (a,b), gamma [degree]:                                90.000000
 CELL_TOP| Numerically orthorhombic:                                         YES
 CELL_TOP| Periodicity                                                       XYZ

 GENERATE|  Preliminary Number of Bonds generated:                             0
 GENERATE|  Achieved consistency in connectivity generation.

 CELL| Volume [angstrom^3]:                                           983.249569
 CELL| Vector a [angstrom]:       7.012     0.000     0.000   |a| =     7.011596
 CELL| Vector b [angstrom]:       0.000     7.012     0.000   |b| =     7.011596
 CELL| Vector c [angstrom]:       0.000     0.000    20.000   |c| =    20.000000
 CELL| Angle (b,c), alpha [degree]:                                    90.000000
 CELL| Angle (a,c), beta  [degree]:                                    90.000000
 CELL| Angle (a,b), gamma [degree]:                                    90.000000
 CELL| Numerically orthorhombic:                                             YES
 CELL| Periodicity                                                           XYZ

 CELL_REF| Volume [angstrom^3]:                                       983.249569
 CELL_REF| Vector a [angstrom     7.012     0.000     0.000   |a| =     7.011596
 CELL_REF| Vector b [angstrom     0.000     7.012     0.000   |b| =     7.011596
 CELL_REF| Vector c [angstrom     0.000     0.000    20.000   |c| =    20.000000
 CELL_REF| Angle (b,c), alpha [degree]:                                90.000000
 CELL_REF| Angle (a,c), beta  [degree]:                                90.000000
 CELL_REF| Angle (a,b), gamma [degree]:                                90.000000
 CELL_REF| Numerically orthorhombic:                                         YES
 CELL_REF| Periodicity                                                       XYZ

 *** WARNING in cryssym.F:165 :: Symmetry library SPGLIB not available ***


 *******************************************************************************
                                    Kpoints
 *******************************************************************************
 BRILLOUIN| K-point scheme                                        Monkhorst-Pack
 BRILLOUIN| K-Point grid                                             4    4    1
 BRILLOUIN| Accuracy in Symmetry determination                      0.100000E-05
 BRILLOUIN| K-Point point group symmetrization                               OFF
 BRILLOUIN| Wavefunction type                                            COMPLEX
 BRILLOUIN| List of Kpoints [2 Pi/Bohr]                                        8
 BRILLOUIN| Number           Weight            X              Y              Z
 BRILLOUIN|     1           0.12500       -0.37500       -0.37500        0.00000
 BRILLOUIN|     2           0.12500       -0.37500       -0.12500        0.00000
 BRILLOUIN|     3           0.12500       -0.37500        0.12500        0.00000
 BRILLOUIN|     4           0.12500       -0.37500        0.37500        0.00000
 BRILLOUIN|     5           0.12500       -0.12500       -0.37500        0.00000
 BRILLOUIN|     6           0.12500       -0.12500       -0.12500        0.00000
 BRILLOUIN|     7           0.12500       -0.12500        0.12500        0.00000
 BRILLOUIN|     8           0.12500       -0.12500        0.37500        0.00000
 *******************************************************************************

 *******************************************************************************
 *******************************************************************************
 **                                                                           **
 **     #####                         ##              ##                      **
 **    ##   ##            ##          ##              ##                      **
 **   ##     ##                       ##            ######                    **
 **   ##     ##  ##   ##  ##   #####  ##  ##   ####   ##    #####    #####    **
 **   ##     ##  ##   ##  ##  ##      ## ##   ##      ##   ##   ##  ##   ##   **
 **   ##  ## ##  ##   ##  ##  ##      ####     ###    ##   ######   ######    **
 **    ##  ###   ##   ##  ##  ##      ## ##      ##   ##   ##       ##        **
 **     #######   #####   ##   #####  ##  ##  ####    ##    #####   ##        **
 **           ##                                                    ##        **
 **                                                                           **
 **                                                ... make the atoms dance   **
 **                                                                           **
 **            Copyright (C) by CP2K developers group (2000-2023)             **
 **                      J. Chem. Phys. 152, 194103 (2020)                    **
 **                                                                           **
 *******************************************************************************

 *** WARNING in qs_environment.F:1456 :: Number of electrons will be ***
 *** overwritten by NELEC_ALPHA and NELEC_BETA, multiplicity will be ***
 *** ignored.                                                        ***

 Number of electrons should be                                               576
 Sum of NELEC_ALPHA and NELEC_BETA is                                    576.000

 *** WARNING in qs_environment.F:1488 :: NELEC_ALPHA is not an integer, ***
 *** many features will not be supported.                               ***


 *** WARNING in qs_environment.F:1500 :: NELEC_BETA is not an integer, ***
 *** many features will not be supported.                              ***


 *** WARNING in qs_environment.F:1532 :: More ADDED_MOs requested for beta ***
 *** spin than available.                                                  ***


 *** WARNING in qs_environment.F:1548 :: More added MOs requested than     ***
 *** available. The full set of unoccupied MOs will be used. Use           ***
 *** 'ADDED_MOS -1' to always use all available MOs and to get rid of this ***
 *** warning.                                                              ***


 DFT| Spin unrestricted (spin-polarized) Kohn-Sham calculation               UKS
 DFT| Multiplicity                                                             1
 DFT| Number of spin states                                                    2
 DFT| Charge                                                                   0
 DFT| Self-interaction correction (SIC)                                       NO
 DFT| Cutoffs: density                                              1.000000E-10
 DFT|          gradient                                             1.000000E-10
 DFT|          tau                                                  1.000000E-10
 DFT|          cutoff_smoothing_range                               0.000000E+00
 DFT| XC density smoothing                                                  NONE
 DFT| XC derivatives                                                          PW

 FUNCTIONAL| PBE:
 FUNCTIONAL| J.P.Perdew, K.Burke, M.Ernzerhof, Phys. Rev. Letter, vol. 77, n 18,
 FUNCTIONAL|  pp. 3865-3868, (1996){spin polarized}                             

 vdW POTENTIAL|                                                   Pair Potential
 vdW POTENTIAL|          DFT-D3 (Version 3.1)
 vdW POTENTIAL|          Potential Form: S. Grimme et al, JCP 132: 154104 (2010)
 vdW POTENTIAL|          Zero Damping
 vdW POTENTIAL|          Cutoff Radius [Bohr]:                             20.00
 vdW POTENTIAL|          s6 Scaling Factor:                               1.0000
 vdW POTENTIAL|          sr6 Scaling Factor:                              1.2170
 vdW POTENTIAL|          s8 Scaling Factor:                               0.7220
 vdW POTENTIAL|          Cutoff for CN calculation:                   0.1000E-05

 QS| Method:                                                                 GPW
 QS| Density plane wave grid type                        NON-SPHERICAL FULLSPACE
 QS| Number of grid levels:                                                    5
 QS| Density cutoff [a.u.]:                                                300.0
 QS| Multi grid cutoff [a.u.]: 1) grid level                               300.0
 QS|                           2) grid level                               100.0
 QS|                           3) grid level                                33.3
 QS|                           4) grid level                                11.1
 QS|                           5) grid level                                 3.7
 QS| Grid level progression factor:                                          3.0
 QS| Relative density cutoff [a.u.]:                                        30.0
 QS| Interaction thresholds: eps_pgf_orb:                                1.0E-06
 QS|                         eps_filter_matrix:                          0.0E+00
 QS|                         eps_core_charge:                            1.0E-14
 QS|                         eps_rho_gspace:                             1.0E-12
 QS|                         eps_rho_rspace:                             1.0E-12
 QS|                         eps_gvg_rspace:                             1.0E-06
 QS|                         eps_ppl:                                    1.0E-02
 QS|                         eps_ppnl:                                   1.0E-08


 ATOMIC KIND INFORMATION

  1. Atomic kind: Ni_i                                  Number of atoms:      16

     Orbital Basis Set                                        DZVP-MOLOPT-SR-GTH

       Number of orbital shell sets:                                           1
       Number of orbital shells:                                               8
       Number of primitive Cartesian functions:                                6
       Number of Cartesian basis functions:                                   31
       Number of spherical basis functions:                                   26
       Norm type:                                                              2

       Normalised Cartesian orbitals:

                        Set   Shell   Orbital            Exponent    Coefficient

                          1       1    2s               10.077428      -0.684558
                                                         5.847736      -0.844524
                                                         2.494033       1.088856
                                                         0.988355       0.395503
                                                         0.344978       0.010224
                                                         0.099466      -0.003250

                          1       2    3s               10.077428       0.096747
                                                         5.847736       0.162504
                                                         2.494033      -0.297192
                                                         0.988355      -0.319752
                                                         0.344978       0.088318
                                                         0.099466       0.118587

                          1       3    4s               10.077428       0.036437
                                                         5.847736      -0.381480
                                                         2.494033       0.003759
                                                         0.988355      -1.048256
                                                         0.344978       0.855825
                                                         0.099466      -0.176350

                          1       4    3px              10.077428      -3.133913
                                                         5.847736       3.027656
                                                         2.494033       2.353227
                                                         0.988355       0.554184
                                                         0.344978       0.019462
                                                         0.099466      -0.000291
                          1       4    3py              10.077428      -3.133913
                                                         5.847736       3.027656
                                                         2.494033       2.353227
                                                         0.988355       0.554184
                                                         0.344978       0.019462
                                                         0.099466      -0.000291
                          1       4    3pz              10.077428      -3.133913
                                                         5.847736       3.027656
                                                         2.494033       2.353227
                                                         0.988355       0.554184
                                                         0.344978       0.019462
                                                         0.099466      -0.000291

                          1       5    4px              10.077428      -0.112729
                                                         5.847736      -0.114008
                                                         2.494033      -0.347303
                                                         0.988355      -0.110323
                                                         0.344978       0.154096
                                                         0.099466       0.058386
                          1       5    4py              10.077428      -0.112729
                                                         5.847736      -0.114008
                                                         2.494033      -0.347303
                                                         0.988355      -0.110323
                                                         0.344978       0.154096
                                                         0.099466       0.058386
                          1       5    4pz              10.077428      -0.112729
                                                         5.847736      -0.114008
                                                         2.494033      -0.347303
                                                         0.988355      -0.110323
                                                         0.344978       0.154096
                                                         0.099466       0.058386

                          1       6    4dx2             10.077428       8.232726
                                                         5.847736       9.105758
                                                         2.494033       2.849835
                                                         0.988355       0.554319
                                                         0.344978       0.067245
                                                         0.099466       0.001940
                          1       6    4dxy             10.077428      14.259500
                                                         5.847736      15.771636
                                                         2.494033       4.936060
                                                         0.988355       0.960109
                                                         0.344978       0.116472
                                                         0.099466       0.003360
                          1       6    4dxz             10.077428      14.259500
                                                         5.847736      15.771636
                                                         2.494033       4.936060
                                                         0.988355       0.960109
                                                         0.344978       0.116472
                                                         0.099466       0.003360
                          1       6    4dy2             10.077428       8.232726
                                                         5.847736       9.105758
                                                         2.494033       2.849835
                                                         0.988355       0.554319
                                                         0.344978       0.067245
                                                         0.099466       0.001940
                          1       6    4dyz             10.077428      14.259500
                                                         5.847736      15.771636
                                                         2.494033       4.936060
                                                         0.988355       0.960109
                                                         0.344978       0.116472
                                                         0.099466       0.003360
                          1       6    4dz2             10.077428       8.232726
                                                         5.847736       9.105758
                                                         2.494033       2.849835
                                                         0.988355       0.554319
                                                         0.344978       0.067245
                                                         0.099466       0.001940

                          1       7    5dx2             10.077428      -2.715373
                                                         5.847736      -4.020640
                                                         2.494033      -1.397569
                                                         0.988355      -0.076143
                                                         0.344978       0.033435
                                                         0.099466       0.026032
                          1       7    5dxy             10.077428      -4.703164
                                                         5.847736      -6.963952
                                                         2.494033      -2.420661
                                                         0.988355      -0.131883
                                                         0.344978       0.057911
                                                         0.099466       0.045088
                          1       7    5dxz             10.077428      -4.703164
                                                         5.847736      -6.963952
                                                         2.494033      -2.420661
                                                         0.988355      -0.131883
                                                         0.344978       0.057911
                                                         0.099466       0.045088
                          1       7    5dy2             10.077428      -2.715373
                                                         5.847736      -4.020640
                                                         2.494033      -1.397569
                                                         0.988355      -0.076143
                                                         0.344978       0.033435
                                                         0.099466       0.026032
                          1       7    5dyz             10.077428      -4.703164
                                                         5.847736      -6.963952
                                                         2.494033      -2.420661
                                                         0.988355      -0.131883
                                                         0.344978       0.057911
                                                         0.099466       0.045088
                          1       7    5dz2             10.077428      -2.715373
                                                         5.847736      -4.020640
                                                         2.494033      -1.397569
                                                         0.988355      -0.076143
                                                         0.344978       0.033435
                                                         0.099466       0.026032

                          1       8    5fx3             10.077428      -0.467694
                                                         5.847736       0.618100
                                                         2.494033       0.066069
                                                         0.988355       0.262898
                                                         0.344978       0.004720
                                                         0.099466       0.007748
                          1       8    5fx2y            10.077428      -1.045795
                                                         5.847736       1.382114
                                                         2.494033       0.147734
                                                         0.988355       0.587859
                                                         0.344978       0.010555
                                                         0.099466       0.017325
                          1       8    5fx2z            10.077428      -1.045795
                                                         5.847736       1.382114
                                                         2.494033       0.147734
                                                         0.988355       0.587859
                                                         0.344978       0.010555
                                                         0.099466       0.017325
                          1       8    5fxy2            10.077428      -1.045795
                                                         5.847736       1.382114
                                                         2.494033       0.147734
                                                         0.988355       0.587859
                                                         0.344978       0.010555
                                                         0.099466       0.017325
                          1       8    5fxyz            10.077428      -1.811371
                                                         5.847736       2.393892
                                                         2.494033       0.255883
                                                         0.988355       1.018201
                                                         0.344978       0.018282
                                                         0.099466       0.030008
                          1       8    5fxz2            10.077428      -1.045795
                                                         5.847736       1.382114
                                                         2.494033       0.147734
                                                         0.988355       0.587859
                                                         0.344978       0.010555
                                                         0.099466       0.017325
                          1       8    5fy3             10.077428      -0.467694
                                                         5.847736       0.618100
                                                         2.494033       0.066069
                                                         0.988355       0.262898
                                                         0.344978       0.004720
                                                         0.099466       0.007748
                          1       8    5fy2z            10.077428      -1.045795
                                                         5.847736       1.382114
                                                         2.494033       0.147734
                                                         0.988355       0.587859
                                                         0.344978       0.010555
                                                         0.099466       0.017325
                          1       8    5fyz2            10.077428      -1.045795
                                                         5.847736       1.382114
                                                         2.494033       0.147734
                                                         0.988355       0.587859
                                                         0.344978       0.010555
                                                         0.099466       0.017325
                          1       8    5fz3             10.077428      -0.467694
                                                         5.847736       0.618100
                                                         2.494033       0.066069
                                                         0.988355       0.262898
                                                         0.344978       0.004720
                                                         0.099466       0.007748

       Atomic covalent radius [Angstrom]:                                  1.150

       Atomic van der Waals radius [Angstrom]:                             1.630

     GTH Potential information for                                   GTH-PBE-q18

       Description:                       Goedecker-Teter-Hutter pseudopotential
                                           Goedecker et al., PRB 54, 1703 (1996)
                                          Hartwigsen et al., PRB 58, 3641 (1998)
                                                      Krack, TCA 114, 145 (2005)

       Gaussian exponent of the core charge distribution:               4.081633
       Electronic configuration (s p d ...):                           4   6   8

       Parameters of the local part of the GTH pseudopotential:

                          rloc        C1          C2          C3          C4
                        0.350000    2.102166    0.648484

       Parameters of the non-local part of the GTH pseudopotential:

                   l      r(l)      h(i,j,l)

                   0    0.261295    0.622658    9.970227
                                    9.970227  -12.871507
                   1    0.224253  -11.142708   12.429566
                                   12.429566  -14.706861
                   2    0.215348  -12.628146

  2. Atomic kind: Ni_b                                  Number of atoms:      16

     Orbital Basis Set                                        DZVP-MOLOPT-SR-GTH

       Number of orbital shell sets:                                           1
       Number of orbital shells:                                               8
       Number of primitive Cartesian functions:                                6
       Number of Cartesian basis functions:                                   31
       Number of spherical basis functions:                                   26
       Norm type:                                                              2

       Normalised Cartesian orbitals:

                        Set   Shell   Orbital            Exponent    Coefficient

                          1       1    2s               10.077428      -0.684558
                                                         5.847736      -0.844524
                                                         2.494033       1.088856
                                                         0.988355       0.395503
                                                         0.344978       0.010224
                                                         0.099466      -0.003250

                          1       2    3s               10.077428       0.096747
                                                         5.847736       0.162504
                                                         2.494033      -0.297192
                                                         0.988355      -0.319752
                                                         0.344978       0.088318
                                                         0.099466       0.118587

                          1       3    4s               10.077428       0.036437
                                                         5.847736      -0.381480
                                                         2.494033       0.003759
                                                         0.988355      -1.048256
                                                         0.344978       0.855825
                                                         0.099466      -0.176350

                          1       4    3px              10.077428      -3.133913
                                                         5.847736       3.027656
                                                         2.494033       2.353227
                                                         0.988355       0.554184
                                                         0.344978       0.019462
                                                         0.099466      -0.000291
                          1       4    3py              10.077428      -3.133913
                                                         5.847736       3.027656
                                                         2.494033       2.353227
                                                         0.988355       0.554184
                                                         0.344978       0.019462
                                                         0.099466      -0.000291
                          1       4    3pz              10.077428      -3.133913
                                                         5.847736       3.027656
                                                         2.494033       2.353227
                                                         0.988355       0.554184
                                                         0.344978       0.019462
                                                         0.099466      -0.000291

                          1       5    4px              10.077428      -0.112729
                                                         5.847736      -0.114008
                                                         2.494033      -0.347303
                                                         0.988355      -0.110323
                                                         0.344978       0.154096
                                                         0.099466       0.058386
                          1       5    4py              10.077428      -0.112729
                                                         5.847736      -0.114008
                                                         2.494033      -0.347303
                                                         0.988355      -0.110323
                                                         0.344978       0.154096
                                                         0.099466       0.058386
                          1       5    4pz              10.077428      -0.112729
                                                         5.847736      -0.114008
                                                         2.494033      -0.347303
                                                         0.988355      -0.110323
                                                         0.344978       0.154096
                                                         0.099466       0.058386

                          1       6    4dx2             10.077428       8.232726
                                                         5.847736       9.105758
                                                         2.494033       2.849835
                                                         0.988355       0.554319
                                                         0.344978       0.067245
                                                         0.099466       0.001940
                          1       6    4dxy             10.077428      14.259500
                                                         5.847736      15.771636
                                                         2.494033       4.936060
                                                         0.988355       0.960109
                                                         0.344978       0.116472
                                                         0.099466       0.003360
                          1       6    4dxz             10.077428      14.259500
                                                         5.847736      15.771636
                                                         2.494033       4.936060
                                                         0.988355       0.960109
                                                         0.344978       0.116472
                                                         0.099466       0.003360
                          1       6    4dy2             10.077428       8.232726
                                                         5.847736       9.105758
                                                         2.494033       2.849835
                                                         0.988355       0.554319
                                                         0.344978       0.067245
                                                         0.099466       0.001940
                          1       6    4dyz             10.077428      14.259500
                                                         5.847736      15.771636
                                                         2.494033       4.936060
                                                         0.988355       0.960109
                                                         0.344978       0.116472
                                                         0.099466       0.003360
                          1       6    4dz2             10.077428       8.232726
                                                         5.847736       9.105758
                                                         2.494033       2.849835
                                                         0.988355       0.554319
                                                         0.344978       0.067245
                                                         0.099466       0.001940

                          1       7    5dx2             10.077428      -2.715373
                                                         5.847736      -4.020640
                                                         2.494033      -1.397569
                                                         0.988355      -0.076143
                                                         0.344978       0.033435
                                                         0.099466       0.026032
                          1       7    5dxy             10.077428      -4.703164
                                                         5.847736      -6.963952
                                                         2.494033      -2.420661
                                                         0.988355      -0.131883
                                                         0.344978       0.057911
                                                         0.099466       0.045088
                          1       7    5dxz             10.077428      -4.703164
                                                         5.847736      -6.963952
                                                         2.494033      -2.420661
                                                         0.988355      -0.131883
                                                         0.344978       0.057911
                                                         0.099466       0.045088
                          1       7    5dy2             10.077428      -2.715373
                                                         5.847736      -4.020640
                                                         2.494033      -1.397569
                                                         0.988355      -0.076143
                                                         0.344978       0.033435
                                                         0.099466       0.026032
                          1       7    5dyz             10.077428      -4.703164
                                                         5.847736      -6.963952
                                                         2.494033      -2.420661
                                                         0.988355      -0.131883
                                                         0.344978       0.057911
                                                         0.099466       0.045088
                          1       7    5dz2             10.077428      -2.715373
                                                         5.847736      -4.020640
                                                         2.494033      -1.397569
                                                         0.988355      -0.076143
                                                         0.344978       0.033435
                                                         0.099466       0.026032

                          1       8    5fx3             10.077428      -0.467694
                                                         5.847736       0.618100
                                                         2.494033       0.066069
                                                         0.988355       0.262898
                                                         0.344978       0.004720
                                                         0.099466       0.007748
                          1       8    5fx2y            10.077428      -1.045795
                                                         5.847736       1.382114
                                                         2.494033       0.147734
                                                         0.988355       0.587859
                                                         0.344978       0.010555
                                                         0.099466       0.017325
                          1       8    5fx2z            10.077428      -1.045795
                                                         5.847736       1.382114
                                                         2.494033       0.147734
                                                         0.988355       0.587859
                                                         0.344978       0.010555
                                                         0.099466       0.017325
                          1       8    5fxy2            10.077428      -1.045795
                                                         5.847736       1.382114
                                                         2.494033       0.147734
                                                         0.988355       0.587859
                                                         0.344978       0.010555
                                                         0.099466       0.017325
                          1       8    5fxyz            10.077428      -1.811371
                                                         5.847736       2.393892
                                                         2.494033       0.255883
                                                         0.988355       1.018201
                                                         0.344978       0.018282
                                                         0.099466       0.030008
                          1       8    5fxz2            10.077428      -1.045795
                                                         5.847736       1.382114
                                                         2.494033       0.147734
                                                         0.988355       0.587859
                                                         0.344978       0.010555
                                                         0.099466       0.017325
                          1       8    5fy3             10.077428      -0.467694
                                                         5.847736       0.618100
                                                         2.494033       0.066069
                                                         0.988355       0.262898
                                                         0.344978       0.004720
                                                         0.099466       0.007748
                          1       8    5fy2z            10.077428      -1.045795
                                                         5.847736       1.382114
                                                         2.494033       0.147734
                                                         0.988355       0.587859
                                                         0.344978       0.010555
                                                         0.099466       0.017325
                          1       8    5fyz2            10.077428      -1.045795
                                                         5.847736       1.382114
                                                         2.494033       0.147734
                                                         0.988355       0.587859
                                                         0.344978       0.010555
                                                         0.099466       0.017325
                          1       8    5fz3             10.077428      -0.467694
                                                         5.847736       0.618100
                                                         2.494033       0.066069
                                                         0.988355       0.262898
                                                         0.344978       0.004720
                                                         0.099466       0.007748

       Atomic covalent radius [Angstrom]:                                  1.150

       Atomic van der Waals radius [Angstrom]:                             1.630

     GTH Potential information for                                   GTH-PBE-q18

       Description:                       Goedecker-Teter-Hutter pseudopotential
                                           Goedecker et al., PRB 54, 1703 (1996)
                                          Hartwigsen et al., PRB 58, 3641 (1998)
                                                      Krack, TCA 114, 145 (2005)

       Gaussian exponent of the core charge distribution:               4.081633
       Electronic configuration (s p d ...):                           4   6   8

       Parameters of the local part of the GTH pseudopotential:

                          rloc        C1          C2          C3          C4
                        0.350000    2.102166    0.648484

       Parameters of the non-local part of the GTH pseudopotential:

                   l      r(l)      h(i,j,l)

                   0    0.261295    0.622658    9.970227
                                    9.970227  -12.871507
                   1    0.224253  -11.142708   12.429566
                                   12.429566  -14.706861
                   2    0.215348  -12.628146


 MOLECULE KIND INFORMATION


 All atoms are their own molecule, skipping detailed information


 TOTAL NUMBERS AND MAXIMUM NUMBERS

  Total number of            - Atomic kinds:                                   2
                             - Atoms:                                         32
                             - Shell sets:                                    32
                             - Shells:                                       256
                             - Primitive Cartesian functions:                192
                             - Cartesian basis functions:                    992
                             - Spherical basis functions:                    832

  Maximum angular momentum of- Orbital basis functions:                        3
                             - Local part of the GTH pseudopotential:          2
                             - Non-local part of the GTH pseudopotential:      3


 MODULE QUICKSTEP: ATOMIC COORDINATES IN ANGSTROM

   Atom Kind Element         X             Y             Z       Z(eff)     Mass
      1    1 Ni   28      0.876298      0.876298      7.370500  18.0000  58.6934
      2    1 Ni   28      0.876298      4.382298      7.370500  18.0000  58.6934
      3    1 Ni   28      2.629298      2.629298      7.370500  18.0000  58.6934
      4    1 Ni   28      2.629298      6.135298      7.370500  18.0000  58.6934
      5    1 Ni   28      4.382298      0.876298      7.370500  18.0000  58.6934
      6    1 Ni   28      4.382298      4.382298      7.370500  18.0000  58.6934
      7    1 Ni   28      6.135298      2.629298      7.370500  18.0000  58.6934
      8    1 Ni   28      6.135298      6.135298      7.370500  18.0000  58.6934
      9    2 Ni   28      0.876298      2.629298      9.123500  18.0000  58.6934
     10    2 Ni   28      0.876298      6.135298      9.123500  18.0000  58.6934
     11    2 Ni   28      2.629298      0.876298      9.123500  18.0000  58.6934
     12    2 Ni   28      2.629298      4.382298      9.123500  18.0000  58.6934
     13    2 Ni   28      4.382298      2.629298      9.123500  18.0000  58.6934
     14    2 Ni   28      4.382298      6.135298      9.123500  18.0000  58.6934
     15    2 Ni   28      6.135298      0.876298      9.123500  18.0000  58.6934
     16    2 Ni   28      6.135298      4.382298      9.123500  18.0000  58.6934
     17    2 Ni   28      0.876298      0.876298     10.876500  18.0000  58.6934
     18    2 Ni   28      0.876298      4.382298     10.876500  18.0000  58.6934
     19    2 Ni   28      2.629298      2.629298     10.876500  18.0000  58.6934
     20    2 Ni   28      2.629298      6.135298     10.876500  18.0000  58.6934
     21    2 Ni   28      4.382298      0.876298     10.876500  18.0000  58.6934
     22    2 Ni   28      4.382298      4.382298     10.876500  18.0000  58.6934
     23    2 Ni   28      6.135298      2.629298     10.876500  18.0000  58.6934
     24    2 Ni   28      6.135298      6.135298     10.876500  18.0000  58.6934
     25    1 Ni   28      0.876298      2.629298     12.629500  18.0000  58.6934
     26    1 Ni   28      0.876298      6.135298     12.629500  18.0000  58.6934
     27    1 Ni   28      2.629298      0.876298     12.629500  18.0000  58.6934
     28    1 Ni   28      2.629298      4.382298     12.629500  18.0000  58.6934
     29    1 Ni   28      4.382298      2.629298     12.629500  18.0000  58.6934
     30    1 Ni   28      4.382298      6.135298     12.629500  18.0000  58.6934
     31    1 Ni   28      6.135298      0.876298     12.629500  18.0000  58.6934
     32    1 Ni   28      6.135298      4.382298     12.629500  18.0000  58.6934



 SCF PARAMETERS         Density guess:                                    ATOMIC
                        --------------------------------------------------------
                        max_scf:                                             500
                        max_scf_history:                                       0
                        max_diis:                                              4
                        --------------------------------------------------------
                        eps_scf:                                        5.00E-04
                        eps_scf_history:                                0.00E+00
                        eps_diis:                                       1.00E-01
                        eps_eigval:                                     1.00E-05
                        --------------------------------------------------------
                        level_shift [a.u.]:                             0.000000
                        added MOs                                       534  553
                        --------------------------------------------------------
                        Mixing method:                            BROYDEN_MIXING
                                                charge density mixing in g-space
                        --------------------------------------------------------
                        Smear method:                                FERMI_DIRAC
                        Electronic temperature [K]:                       2000.0
                        Electronic temperature [a.u.]:                  6.33E-03
                        Accuracy threshold:                             1.00E-10
                        --------------------------------------------------------
                        No outer SCF

 PW_GRID| Information for grid number                                          1
 PW_GRID| Grid distributed over                                   128 processors
 PW_GRID| Real space group dimensions                                     8   16
 PW_GRID| the grid is blocked:                                               YES
 PW_GRID| Cutoff [a.u.]                                                    300.0
 PW_GRID| spherical cutoff:                                                   NO
 PW_GRID|   Bounds   1            -54      53                Points:         108
 PW_GRID|   Bounds   2            -54      53                Points:         108
 PW_GRID|   Bounds   3           -150     149                Points:         300
 PW_GRID| Volume element (a.u.^3)  0.1896E-02     Volume (a.u.^3)      6635.2971
 PW_GRID| Grid span                                                    FULLSPACE
 PW_GRID|   Distribution                         Average         Max         Min
 PW_GRID|   G-Vectors                            27337.5       28728       25272
 PW_GRID|   G-Rays                                 253.1         266         234
 PW_GRID|   Real Space Points                    27337.5       28728       25272

 PW_GRID| Information for grid number                                          2
 PW_GRID| Number of the reference grid                                         1
 PW_GRID| Grid distributed over                                   128 processors
 PW_GRID| Real space group dimensions                                     8   16
 PW_GRID| the grid is blocked:                                                NO
 PW_GRID| Cutoff [a.u.]                                                    100.0
 PW_GRID| spherical cutoff:                                                   NO
 PW_GRID|   Bounds   1            -30      29                Points:          60
 PW_GRID|   Bounds   2            -30      29                Points:          60
 PW_GRID|   Bounds   3            -90      89                Points:         180
 PW_GRID| Volume element (a.u.^3)  0.1024E-01     Volume (a.u.^3)      6635.2971
 PW_GRID| Grid span                                                    FULLSPACE
 PW_GRID|   Distribution                         Average         Max         Min
 PW_GRID|   G-Vectors                             5062.5       15960           0
 PW_GRID|   G-Rays                                  84.4         266           0
 PW_GRID|   Real Space Points                     5062.5        5760        3780

 PW_GRID| Information for grid number                                          3
 PW_GRID| Number of the reference grid                                         1
 PW_GRID| Grid distributed over                                   128 processors
 PW_GRID| Real space group dimensions                                     8   16
 PW_GRID| the grid is blocked:                                                NO
 PW_GRID| Cutoff [a.u.]                                                     33.3
 PW_GRID| spherical cutoff:                                                   NO
 PW_GRID|   Bounds   1            -18      17                Points:          36
 PW_GRID|   Bounds   2            -18      17                Points:          36
 PW_GRID|   Bounds   3            -50      49                Points:         100
 PW_GRID| Volume element (a.u.^3)  0.5120E-01     Volume (a.u.^3)      6635.2971
 PW_GRID| Grid span                                                    FULLSPACE
 PW_GRID|   Distribution                         Average         Max         Min
 PW_GRID|   G-Vectors                             1012.5        9576           0
 PW_GRID|   G-Rays                                  28.1         266           0
 PW_GRID|   Real Space Points                     1012.5        1500         800

 PW_GRID| Information for grid number                                          4
 PW_GRID| Number of the reference grid                                         1
 PW_GRID| Grid distributed over                                   128 processors
 PW_GRID| Real space group dimensions                                     8   16
 PW_GRID| the grid is blocked:                                                NO
 PW_GRID| Cutoff [a.u.]                                                     11.1
 PW_GRID| spherical cutoff:                                                   NO
 PW_GRID|   Bounds   1            -10       9                Points:          20
 PW_GRID|   Bounds   2            -10       9                Points:          20
 PW_GRID|   Bounds   3            -30      29                Points:          60
 PW_GRID| Volume element (a.u.^3)  0.2765         Volume (a.u.^3)      6635.2971
 PW_GRID| Grid span                                                    FULLSPACE
 PW_GRID|   Distribution                         Average         Max         Min
 PW_GRID|   G-Vectors                              187.5        3800           0
 PW_GRID|   G-Rays                                   9.4         190           0
 PW_GRID|   Real Space Points                      187.5         360         120

 PW_GRID| Information for grid number                                          5
 PW_GRID| Number of the reference grid                                         1
 PW_GRID| Grid distributed over                                   128 processors
 PW_GRID| Real space group dimensions                                     8   16
 PW_GRID| the grid is blocked:                                                NO
 PW_GRID| Cutoff [a.u.]                                                      3.7
 PW_GRID| spherical cutoff:                                                   NO
 PW_GRID|   Bounds   1             -6       5                Points:          12
 PW_GRID|   Bounds   2             -6       5                Points:          12
 PW_GRID|   Bounds   3            -18      17                Points:          36
 PW_GRID| Volume element (a.u.^3)   1.280         Volume (a.u.^3)      6635.2971
 PW_GRID| Grid span                                                    FULLSPACE
 PW_GRID|   Distribution                         Average         Max         Min
 PW_GRID|   G-Vectors                               40.5        1296           0
 PW_GRID|   G-Rays                                   3.4         108           0
 PW_GRID|   Real Space Points                       40.5          72           0

 POISSON| Solver                                                        PERIODIC
 POISSON| Periodicity                                                        XYZ

 RS_GRID| Information for grid number                                          1
 RS_GRID|   Bounds   1            -54      53                Points:         108
 RS_GRID|   Bounds   2            -54      53                Points:         108
 RS_GRID|   Bounds   3           -150     149                Points:         300
 RS_GRID| Real space distribution over                                  8 groups
 RS_GRID| Real space distribution along direction                              2
 RS_GRID| Border size                                                         28
 RS_GRID| Real space distribution over                                 16 groups
 RS_GRID| Real space distribution along direction                              3
 RS_GRID| Border size                                                         28
 RS_GRID|   Distribution                         Average         Max         Min
 RS_GRID|   Planes                                  69.5          70          69
 RS_GRID|   Distribution                         Average         Max         Min
 RS_GRID|   Planes                                  74.8          75          74

 RS_GRID| Information for grid number                                          2
 RS_GRID|   Bounds   1            -30      29                Points:          60
 RS_GRID|   Bounds   2            -30      29                Points:          60
 RS_GRID|   Bounds   3            -90      89                Points:         180
 RS_GRID| Real space fully replicated
 RS_GRID| Group size                                                           1

 RS_GRID| Information for grid number                                          3
 RS_GRID|   Bounds   1            -18      17                Points:          36
 RS_GRID|   Bounds   2            -18      17                Points:          36
 RS_GRID|   Bounds   3            -50      49                Points:         100
 RS_GRID| Real space fully replicated
 RS_GRID| Group size                                                           1

 RS_GRID| Information for grid number                                          4
 RS_GRID|   Bounds   1            -10       9                Points:          20
 RS_GRID|   Bounds   2            -10       9                Points:          20
 RS_GRID|   Bounds   3            -30      29                Points:          60
 RS_GRID| Real space fully replicated
 RS_GRID| Group size                                                           1

 RS_GRID| Information for grid number                                          5
 RS_GRID|   Bounds   1             -6       5                Points:          12
 RS_GRID|   Bounds   2             -6       5                Points:          12
 RS_GRID|   Bounds   3            -18      17                Points:          36
 RS_GRID| Real space fully replicated
 RS_GRID| Group size                                                           1

 Spin 1

 Number of electrons:                                                        297.600
 Number of occupied orbitals:                                                298
 Number of molecular orbitals:                                               832

 Spin 2

 Number of electrons:                                                        278.400
 Number of occupied orbitals:                                                279
 Number of molecular orbitals:                                               832

 Number of orbital functions:                                                832
 Number of independent orbital functions:                                    832

 Extrapolation method: initial_guess

 Atomic guess: The first density matrix is obtained in terms of atomic orbitals
               and electronic configurations assigned to each atomic kind

 Guess for atomic kind: Ni_i

 Electronic structure
    Total number of core electrons                                         10.00
    Total number of valence electrons                                      18.00
    Total number of electrons                                              28.00
    Multiplicity                                                         doublet
    Alpha Electrons
    S   [  1.00  1.00] 1.00  1.00
    P   [  3.00] 3.00
    D      4.35
    Beta Electrons
    S   [  1.00  1.00] 1.00  1.00
    P   [  3.00] 3.00
    D      3.65


 *******************************************************************************
                  Iteration          Convergence                     Energy [au]
 *******************************************************************************
                          1         1.51729                    -167.067424631347
                          2         15.3902                    -156.642654318634
                          3         2.33433                    -168.319355313541
                          4        0.206730                    -168.609905008081
                          5        0.814175E-01                -168.612873080494
                          6        0.173318E-01                -168.613470181066
                          7        0.290432E-02                -168.613543571401
                          8        0.311825E-02                -168.613543401474
                          9        0.179670E-03                -168.613544404477
                         10        0.169386E-02                -168.613544207811
                         11        0.473341E-03                -168.613544360253
                         12        0.165417E-03                -168.613544400419
                         13        0.162622E-03                -168.613544401489
                         14        0.158325E-03                -168.613544403900
                         15        0.177007E-03                -168.613544402509
                         16        0.138916E-03                -168.613544404900
                         17        0.934549E-04                -168.613544406149
                         18        0.119916E-03                -168.613544405789
                         19        0.131607E-03                -168.613544405591
                         20        0.169309E-03                -168.613544404773
                         21        0.551337E-04                -168.613544406656
                         22        0.382664E-04                -168.613544406759
                         23        0.378942E-04                -168.613544406765
                         24        0.381089E-04                -168.613544406765
                         25        0.390835E-04                -168.613544406759
                         26        0.308614E-04                -168.613544406841
                         27        0.205044E-04                -168.613544406892
                         28        0.200942E-04                -168.613544406893
                         29        0.199375E-04                -168.613544406893
                         30        0.200198E-04                -168.613544406894
                         31        0.161325E-04                -168.613544406903
                         32        0.330614E-05                -168.613544406925
                         33        0.238713E-05                -168.613544406926
                         34        0.265439E-05                -168.613544406926
                         35        0.277073E-05                -168.613544406926
                         36        0.335175E-05                -168.613544406926
                         37        0.148809E-05                -168.613544406927
                         38        0.133447E-05                -168.613544406927
                         39        0.918735E-06                -168.613544406927

 Energy components [Hartree]           Total Energy ::         -168.613544406927
                                        Band Energy ::          -26.569761966525
                                     Kinetic Energy ::           97.306723392622
                                   Potential Energy ::         -265.920267799548
                                      Virial (-V/T) ::            2.732804666812
                                        Core Energy ::         -299.567979157577
                                          XC Energy ::          -16.227189041387
                                     Coulomb Energy ::          147.181623792037
                       Total Pseudopotential Energy ::         -396.961043505191
                       Local Pseudopotential Energy ::         -362.648291121960
                    Nonlocal Pseudopotential Energy ::          -34.312752383230
                                        Confinement ::            0.863409549921

 Orbital energies  State     Spin  L     Occupation   Energy[a.u.]    Energy[eV]

                       1    alpha  0          1.000      -4.172666   -113.544030
                       2    alpha  0          1.000      -0.181431     -4.936983
                       1     beta  0          1.000      -4.140640   -112.672541
                       2     beta  0          1.000      -0.176372     -4.799339

                       1    alpha  1          3.000      -2.578739    -70.171064
                       1     beta  1          3.000      -2.547579    -69.323162

                       1    alpha  2          4.350      -0.327039     -8.899191
                       1     beta  2          3.650      -0.300569     -8.178887


 Total Electron Density at R=0:                                         0.030422

 Guess for atomic kind: Ni_b

 Electronic structure
    Total number of core electrons                                         10.00
    Total number of valence electrons                                      18.00
    Total number of electrons                                              28.00
    Multiplicity                                                         doublet
    Alpha Electrons
    S   [  1.00  1.00] 1.00  1.00
    P   [  3.00] 3.00
    D      4.25
    Beta Electrons
    S   [  1.00  1.00] 1.00  1.00
    P   [  3.00] 3.00
    D      3.75


 *******************************************************************************
                  Iteration          Convergence                     Energy [au]
 *******************************************************************************
                          1         1.51687                    -167.065012761055
                          2         14.9817                    -156.620431300845
                          3         2.25575                    -168.317311438693
                          4        0.189210                    -168.607926092750
                          5        0.708658E-01                -168.610773319290
                          6        0.122256E-01                -168.611238205502
                          7        0.598421E-02                -168.611272268995
                          8        0.528277E-02                -168.611272438110
                          9        0.104644E-02                -168.611275321653
                         10        0.260234E-02                -168.611274926630
                         11        0.975322E-03                -168.611275328217
                         12        0.161067E-03                -168.611275447773
                         13        0.147413E-03                -168.611275446839
                         14        0.115114E-03                -168.611275449434
                         15        0.167217E-03                -168.611275445436
                         16        0.255374E-04                -168.611275450531
                         17        0.418369E-04                -168.611275450414
                         18        0.393709E-04                -168.611275450477
                         19        0.239931E-04                -168.611275450542
                         20        0.173885E-04                -168.611275450557
                         21        0.851368E-05                -168.611275450578
                         22        0.849928E-05                -168.611275450580
                         23        0.544937E-05                -168.611275450584
                         24        0.540003E-05                -168.611275450586
                         25        0.613371E-05                -168.611275450584
                         26        0.311593E-06                -168.611275450588

 Energy components [Hartree]           Total Energy ::         -168.611275450588
                                        Band Energy ::          -26.568680144499
                                     Kinetic Energy ::           97.303659243130
                                   Potential Energy ::         -265.914934693718
                                      Virial (-V/T) ::            2.732835915546
                                        Core Energy ::         -299.566189183323
                                          XC Energy ::          -16.224592878785
                                     Coulomb Energy ::          147.179506611520
                       Total Pseudopotential Energy ::         -396.956189041778
                       Local Pseudopotential Energy ::         -362.645043136649
                    Nonlocal Pseudopotential Energy ::          -34.311145905129
                                        Confinement ::            0.863406153250

 Orbital energies  State     Spin  L     Occupation   Energy[a.u.]    Energy[eV]

                       1    alpha  0          1.000      -4.168335   -113.426177
                       2    alpha  0          1.000      -0.180730     -4.917906
                       1     beta  0          1.000      -4.145459   -112.803683
                       2     beta  0          1.000      -0.177117     -4.819606

                       1    alpha  1          3.000      -2.574525    -70.056390
                       1     beta  1          3.000      -2.552268    -69.450746

                       1    alpha  2          4.250      -0.323446     -8.801405
                       1     beta  2          3.750      -0.304537     -8.286881


 Total Electron Density at R=0:                                         0.030429

 Spin 1
 Re-scaling the density matrix to get the right number of electrons for spin 1
                  # Electrons              Trace(P)               Scaling factor
                        297.600             297.600                        1.000

 Spin 2
 Re-scaling the density matrix to get the right number of electrons for spin 2
                  # Electrons              Trace(P)               Scaling factor
                        278.400             278.400                        1.000


 SCF WAVEFUNCTION OPTIMIZATION

  Step     Update method      Time    Convergence         Total energy    Change
  ------------------------------------------------------------------------------
     1 NoMix/Diag. 0.10E+00    2.1     0.87318318     -5426.4441344177 -5.43E+03
     2 Broy./Diag. 0.10E+00    1.5     0.09314156     -5321.4940207804  1.05E+02
[...]
   135 Broy./Diag. 0.10E+00    1.5     0.00660452     -5417.7526813885 -6.83E-02
   136 Broy./Diag. 0.10E+00    1.5     0.02666593     -5417.7423767036  1.03E-02
   137 Broy./Diag. 0.10E+00    1.5     0.01815629     -5417.6336966642  1.09E-01
   138 Broy./Diag. 0.10E+00    1.5     0.02063332     -5417.5520470168  8.16E-02
   139 Broy./Diag. 0.10E+00    1.5     0.06886572     -5417.7300703185 -1.78E-01
   140 Broy./Diag. 0.10E+00    1.5     0.09381471     -5417.6796283419  5.04E-02
   141 Broy./Diag. 0.10E+00    1.5     0.09027119     -5417.4784432469  2.01E-01
   142 Broy./Diag. 0.10E+00    1.5     0.10751630     -5417.6027342167 -1.24E-01
   143 Broy./Diag. 0.10E+00    1.5     0.04581130     -5417.5253163546  7.74E-02
   144 Broy./Diag. 0.10E+00    1.5     0.03966575     -5417.6278823262 -1.03E-01
   145 Broy./Diag. 0.10E+00    1.5     0.06104720     -5417.8514072574 -2.24E-01
   146 Broy./Diag. 0.10E+00    1.5     0.05584861     -5417.9518866166 -1.00E-01
   147 Broy./Diag. 0.10E+00    1.5     0.05471340     -5417.5336376461  4.18E-01
   148 Broy./Diag. 0.10E+00    1.5     0.02711700     -5417.7290653120 -1.95E-01
   149 Broy./Diag. 0.10E+00    1.5     0.03873052     -5417.8233388695 -9.43E-02
   150 Broy./Diag. 0.10E+00    1.5     0.04159801     -5417.8874816311 -6.41E-02
   151 Broy./Diag. 0.10E+00    1.5     0.01961518     -5417.9311373564 -4.37E-02
   152 Broy./Diag. 0.10E+00    1.5     0.05768458     -5417.9094620788  2.17E-02
   153 Broy./Diag. 0.10E+00    1.5     0.02728878     -5418.0715199046 -1.62E-01
   154 Broy./Diag. 0.10E+00    1.5     0.06929268     -5418.0048582296  6.67E-02
   155 Broy./Diag. 0.10E+00    1.5     0.04301525     -5417.8775514022  1.27E-01
   156 Broy./Diag. 0.10E+00    1.5     0.12538887     -5418.0422422757 -1.65E-01
   157 Broy./Diag. 0.10E+00    1.5     0.11653367     -5417.8621843111  1.80E-01
   158 Broy./Diag. 0.10E+00    1.5     0.04873203     -5417.7209227112  1.41E-01
   159 Broy./Diag. 0.10E+00    1.5     0.06890115     -5417.9649964237 -2.44E-01
   160 Broy./Diag. 0.10E+00    1.5     0.04232818     -5417.9013008671  6.37E-02
   161 Broy./Diag. 0.10E+00    1.5     0.09550827     -5417.9221718213 -2.09E-02
   162 Broy./Diag. 0.10E+00    1.5     0.09482754     -5417.8570630137  6.51E-02
   163 Broy./Diag. 0.10E+00    1.5     0.07011911     -5417.9357768509 -7.87E-02
   164 Broy./Diag. 0.10E+00    1.5     0.08117361     -5417.9904410497 -5.47E-02
   165 Broy./Diag. 0.10E+00    1.5     0.09688220     -5417.8323753798  1.58E-01
   166 Broy./Diag. 0.10E+00    1.5     0.07632410     -5418.1978485303 -3.65E-01
   167 Broy./Diag. 0.10E+00    1.5     0.08262322     -5418.0840430735  1.14E-01
   168 Broy./Diag. 0.10E+00    1.5     0.09453327     -5418.1591427375 -7.51E-02
   169 Broy./Diag. 0.10E+00    1.5     0.05774414     -5417.6787134211  4.80E-01
   170 Broy./Diag. 0.10E+00    1.5     0.08069986     -5417.8774764617 -1.99E-01
   171 Broy./Diag. 0.10E+00    1.5     0.02585958     -5417.8082206259  6.93E-02
   172 Broy./Diag. 0.10E+00    1.5     0.06649329     -5417.9803314937 -1.72E-01
   173 Broy./Diag. 0.10E+00    1.5     0.17672522     -5417.7482009061  2.32E-01
   174 Broy./Diag. 0.10E+00    1.5     0.10743278     -5417.7283123589  1.99E-02
   175 Broy./Diag. 0.10E+00    1.5     0.23417676     -5417.8924882383 -1.64E-01
   176 Broy./Diag. 0.10E+00    1.5     0.08002149     -5417.6783101771  2.14E-01
   177 Broy./Diag. 0.10E+00    1.5     0.14212375     -5417.6246988125  5.36E-02
   178 Broy./Diag. 0.10E+00    1.5     0.16980717     -5418.1202171520 -4.96E-01
   179 Broy./Diag. 0.10E+00    1.5     0.07035745     -5417.8033060981  3.17E-01
   180 Broy./Diag. 0.10E+00    1.5     0.06725826     -5417.8286263941 -2.53E-02
   181 Broy./Diag. 0.10E+00    1.5     0.07004365     -5417.8284424654  1.84E-04
   182 Broy./Diag. 0.10E+00    1.5     0.11470330     -5417.7683399450  6.01E-02
   183 Broy./Diag. 0.10E+00    1.5     0.05352910     -5417.5445409810  2.24E-01
   184 Broy./Diag. 0.10E+00    1.5     0.26188444     -5417.7040328273 -1.59E-01
   185 Broy./Diag. 0.10E+00    1.5     0.09894718     -5418.4272541567 -7.23E-01
   186 Broy./Diag. 0.10E+00    1.5     0.10347086     -5418.5140291205 -8.68E-02
   187 Broy./Diag. 0.10E+00    1.5     0.09850582     -5417.9457052436  5.68E-01
   188 Broy./Diag. 0.10E+00    1.5     0.22593197     -5418.1591618567 -2.13E-01
   189 Broy./Diag. 0.10E+00    1.5     0.19391042     -5417.9649846156  1.94E-01
   190 Broy./Diag. 0.10E+00    1.5     0.10330310     -5418.0471766643 -8.22E-02
   191 Broy./Diag. 0.10E+00    1.5     0.11758439     -5418.2740361599 -2.27E-01
   192 Broy./Diag. 0.10E+00    1.5     0.09489196     -5417.8927803633  3.81E-01
   193 Broy./Diag. 0.10E+00    1.5     0.15612698     -5418.0159737261 -1.23E-01
   194 Broy./Diag. 0.10E+00    1.5     0.09710919     -5418.1133360947 -9.74E-02
   195 Broy./Diag. 0.10E+00    1.5     0.15034922     -5418.0761206038  3.72E-02
   196 Broy./Diag. 0.10E+00    1.5     0.14740535     -5417.9640634237  1.12E-01
   197 Broy./Diag. 0.10E+00    1.5     0.18748897     -5418.1832142109 -2.19E-01
   198 Broy./Diag. 0.10E+00    1.5     0.08886927     -5417.5669408149  6.16E-01
   199 Broy./Diag. 0.10E+00    1.5     0.05221937     -5417.5691460521 -2.21E-03
   200 Broy./Diag. 0.10E+00    1.5     0.04677726     -5417.4572859650  1.12E-01
   201 Broy./Diag. 0.10E+00    1.5     0.15202658     -5417.2914718370  1.66E-01
   202 Broy./Diag. 0.10E+00    1.5     0.08777972     -5416.7675245903  5.24E-01
   203 Broy./Diag. 0.10E+00    1.5     0.17724927     -5417.2126574218 -4.45E-01
   204 Broy./Diag. 0.10E+00    1.5     0.17996375     -5418.0765144248 -8.64E-01
   205 Broy./Diag. 0.10E+00    1.5     0.19170104     -5417.5391170998  5.37E-01
   206 Broy./Diag. 0.10E+00    1.5     0.22008338     -5417.1635880202  3.76E-01
   207 Broy./Diag. 0.10E+00    1.5     0.17912793     -5418.4687444690 -1.31E+00
   208 Broy./Diag. 0.10E+00    1.5     0.11928819     -5416.9223851224  1.55E+00
   209 Broy./Diag. 0.10E+00    1.5     0.04934614     -5416.9608815910 -3.85E-02
   210 Broy./Diag. 0.10E+00    1.5     0.11296835     -5417.0840599805 -1.23E-01
   211 Broy./Diag. 0.10E+00    1.5     0.22901318     -5416.8396776666  2.44E-01
   212 Broy./Diag. 0.10E+00    1.5     0.16780938     -5417.5755863321 -7.36E-01
   213 Broy./Diag. 0.10E+00    1.5     0.25392763     -5417.5221824039  5.34E-02
   214 Broy./Diag. 0.10E+00    1.5     0.21156884     -5418.0707478727 -5.49E-01
   215 Broy./Diag. 0.10E+00    1.5     0.07697817     -5417.4269882167  6.44E-01
   216 Broy./Diag. 0.10E+00    1.5     0.19897714     -5417.5989575144 -1.72E-01
   217 Broy./Diag. 0.10E+00    1.5     0.29305964     -5419.3368101709 -1.74E+00
   218 Broy./Diag. 0.10E+00    1.5     0.19007588     -5417.0605540675  2.28E+00
   219 Broy./Diag. 0.10E+00    1.5     0.09344547     -5417.3502347425 -2.90E-01
   220 Broy./Diag. 0.10E+00    1.5     0.17050364     -5417.4939555916 -1.44E-01
   221 Broy./Diag. 0.10E+00    1.5     0.07734239     -5417.7111230271 -2.17E-01
   222 Broy./Diag. 0.10E+00    1.5     0.31965831     -5417.8982839694 -1.87E-01
   223 Broy./Diag. 0.10E+00    1.5     0.06871625     -5417.2567144611  6.42E-01
   224 Broy./Diag. 0.10E+00    1.5     0.06404679     -5416.6809978007  5.76E-01
   225 Broy./Diag. 0.10E+00    1.5     0.07724574     -5416.7034517826 -2.25E-02
   226 Broy./Diag. 0.10E+00    1.5     0.09399177     -5416.6308611400  7.26E-02
   227 Broy./Diag. 0.10E+00    1.5     0.12080874     -5417.1629352584 -5.32E-01
   228 Broy./Diag. 0.10E+00    1.5     0.14146846     -5417.4817453126 -3.19E-01
   229 Broy./Diag. 0.10E+00    1.5     0.13232633     -5417.9573769642 -4.76E-01
   230 Broy./Diag. 0.10E+00    1.5     0.09715358     -5417.8110989701  1.46E-01
   231 Broy./Diag. 0.10E+00    1.5     0.16203997     -5418.0340910266 -2.23E-01
   232 Broy./Diag. 0.10E+00    1.5     0.12275205     -5417.1296318904  9.04E-01
   233 Broy./Diag. 0.10E+00    1.5     0.42087723     -5416.6821258458  4.48E-01
   234 Broy./Diag. 0.10E+00    1.5     0.08839860     -5417.6180693090 -9.36E-01
   235 Broy./Diag. 0.10E+00    1.5     0.03616011     -5418.0553190569 -4.37E-01
   236 Broy./Diag. 0.10E+00    1.5     0.05902721     -5417.9613933415  9.39E-02
   237 Broy./Diag. 0.10E+00    1.5     0.10496561     -5417.6979074706  2.63E-01
   238 Broy./Diag. 0.10E+00    1.5     0.15394716     -5417.7398211565 -4.19E-02
   239 Broy./Diag. 0.10E+00    1.5     0.02725195     -5417.9377991280 -1.98E-01
   240 Broy./Diag. 0.10E+00    1.5     0.13304929     -5418.0719052658 -1.34E-01
   241 Broy./Diag. 0.10E+00    1.5     0.26738857     -5418.8455703778 -7.74E-01
   242 Broy./Diag. 0.10E+00    1.5     0.12104531     -5417.3740899941  1.47E+00
   243 Broy./Diag. 0.10E+00    1.5     0.17170682     -5416.8538270203  5.20E-01
   244 Broy./Diag. 0.10E+00    1.5     0.19530671     -5417.4792401124 -6.25E-01
   245 Broy./Diag. 0.10E+00    1.5     0.25425691     -5416.7409579747  7.38E-01
   246 Broy./Diag. 0.10E+00    1.5     0.10002135     -5417.6230166341 -8.82E-01
   247 Broy./Diag. 0.10E+00    1.5     0.18277294     -5417.2566969619  3.66E-01
   248 Broy./Diag. 0.10E+00    1.5     0.12483485     -5417.3198265992 -6.31E-02
   249 Broy./Diag. 0.10E+00    1.5     0.08109492     -5417.3342844282 -1.45E-02
   250 Broy./Diag. 0.10E+00    1.5     0.20992542     -5417.3467412889 -1.25E-02
   251 Broy./Diag. 0.10E+00    1.5     0.31624718     -5418.7230058951 -1.38E+00
   252 Broy./Diag. 0.10E+00    1.5     0.06242195     -5416.8579582232  1.87E+00
   253 Broy./Diag. 0.10E+00    1.5     0.06522951     -5417.1178825364 -2.60E-01
   254 Broy./Diag. 0.10E+00    1.5     0.23769021     -5416.7843942760  3.33E-01
   255 Broy./Diag. 0.10E+00    1.5     0.16338634     -5417.5618670073 -7.77E-01
   256 Broy./Diag. 0.10E+00    1.5     0.18339778     -5417.6471910165 -8.53E-02
   257 Broy./Diag. 0.10E+00    1.5     0.06142701     -5418.2743903866 -6.27E-01
   258 Broy./Diag. 0.10E+00    1.5     0.05038892     -5418.5201910376 -2.46E-01
   259 Broy./Diag. 0.10E+00    1.5     0.24732288     -5418.2543860734  2.66E-01
   260 Broy./Diag. 0.10E+00    1.5     0.36196693     -5417.4647329796  7.90E-01
   261 Broy./Diag. 0.10E+00    1.5     0.11734938     -5418.4196518712 -9.55E-01
   262 Broy./Diag. 0.10E+00    1.5     0.26055493     -5417.9864647649  4.33E-01
   263 Broy./Diag. 0.10E+00    1.5     0.12110033     -5417.2919526384  6.95E-01
   264 Broy./Diag. 0.10E+00    1.5     0.12668993     -5416.8456643728  4.46E-01
   265 Broy./Diag. 0.10E+00    1.5     0.06549671     -5417.8382776740 -9.93E-01
   266 Broy./Diag. 0.10E+00    1.5     0.12038341     -5417.6817177047  1.57E-01
   267 Broy./Diag. 0.10E+00    1.5     0.25180491     -5418.1752916880 -4.94E-01
   268 Broy./Diag. 0.10E+00    1.5     0.24073163     -5419.1574075248 -9.82E-01
   269 Broy./Diag. 0.10E+00    1.5     0.16491229     -5419.9716140395 -8.14E-01
   270 Broy./Diag. 0.10E+00    1.5     0.21575244     -5419.6749364005  2.97E-01
   271 Broy./Diag. 0.10E+00    1.5     0.14934996     -5419.8944479995 -2.20E-01
   272 Broy./Diag. 0.10E+00    1.5     0.14860262     -5419.6899393944  2.05E-01
   273 Broy./Diag. 0.10E+00    1.5     0.04354685     -5420.3656320143 -6.76E-01
   274 Broy./Diag. 0.10E+00    1.5     0.08422468     -5420.9225433390 -5.57E-01
   275 Broy./Diag. 0.10E+00    1.5     0.10974335     -5420.4155541929  5.07E-01
   276 Broy./Diag. 0.10E+00    1.5     0.37544817     -5419.9176263062  4.98E-01
   277 Broy./Diag. 0.10E+00    1.5     0.22246072     -5419.4807372899  4.37E-01
   278 Broy./Diag. 0.10E+00    1.5     0.30813914     -5419.9489079250 -4.68E-01
   279 Broy./Diag. 0.10E+00    1.5     0.23208500     -5419.4156088135  5.33E-01
   280 Broy./Diag. 0.10E+00    1.5     0.47973816     -5419.3944877878  2.11E-02
   281 Broy./Diag. 0.10E+00    1.5     0.43230489     -5420.0151435500 -6.21E-01
   282 Broy./Diag. 0.10E+00    1.5     0.36085778     -5423.6592382592 -3.64E+00
   283 Broy./Diag. 0.10E+00    1.5     0.38526269     -5419.9330205954  3.73E+00
   284 Broy./Diag. 0.10E+00    1.5     0.26355640     -5418.7493523147  1.18E+00
   285 Broy./Diag. 0.10E+00    1.5     0.15834658     -5418.7963126675 -4.70E-02
   286 Broy./Diag. 0.10E+00    1.5     0.09326913     -5418.8055112248 -9.20E-03
   287 Broy./Diag. 0.10E+00    1.5     0.19387750     -5417.6933257466  1.11E+00
   288 Broy./Diag. 0.10E+00    1.5     0.06058878     -5416.9675763309  7.26E-01
   289 Broy./Diag. 0.10E+00    1.5     0.22281100     -5417.1414616319 -1.74E-01
   290 Broy./Diag. 0.10E+00    1.5     0.10425980     -5416.9572504422  1.84E-01
   291 Broy./Diag. 0.10E+00    1.5     0.34629147     -5416.4966205453  4.61E-01
   292 Broy./Diag. 0.10E+00    1.5     0.20566201     -5417.4630599341 -9.66E-01
   293 Broy./Diag. 0.10E+00    1.5     0.41576432     -5417.2285300778  2.35E-01
   294 Broy./Diag. 0.10E+00    1.5     0.37013168     -5417.2023936816  2.61E-02
   295 Broy./Diag. 0.10E+00    1.5     0.11752299     -5417.9380383317 -7.36E-01
   296 Broy./Diag. 0.10E+00    1.5     0.10856709     -5418.2723317427 -3.34E-01
   297 Broy./Diag. 0.10E+00    1.5     0.25735903     -5417.9076860797  3.65E-01
   298 Broy./Diag. 0.10E+00    1.5     0.23203583     -5417.6090924493  2.99E-01
   299 Broy./Diag. 0.10E+00    1.5     0.76887430     -5417.0086362700  6.00E-01
   300 Broy./Diag. 0.10E+00    1.5     0.17079026     -5415.1118005357  1.90E+00
   301 Broy./Diag. 0.10E+00    1.5     0.20696887     -5415.1766335659 -6.48E-02
   302 Broy./Diag. 0.10E+00    1.5     0.70728821     -5415.9546146061 -7.78E-01
   303 Broy./Diag. 0.10E+00    1.5     0.52026919     -5418.0098282961 -2.06E+00
   304 Broy./Diag. 0.10E+00    1.5     0.23727032     -5417.2088771880  8.01E-01
   305 Broy./Diag. 0.10E+00    1.5     0.18070398     -5417.9181829174 -7.09E-01
   306 Broy./Diag. 0.10E+00    1.5     0.43244314     -5417.8747361610  4.34E-02
   307 Broy./Diag. 0.10E+00    1.5     0.17744758     -5417.3197662266  5.55E-01
   308 Broy./Diag. 0.10E+00    1.5     0.42227875     -5417.9612319643 -6.41E-01
   309 Broy./Diag. 0.10E+00    1.5     0.40842424     -5418.4142931517 -4.53E-01
   310 Broy./Diag. 0.10E+00    1.5     0.13065964     -5418.8241424227 -4.10E-01
   311 Broy./Diag. 0.10E+00    1.5     0.62044256     -5417.5879472187  1.24E+00
   312 Broy./Diag. 0.10E+00    1.5     0.29833161     -5417.6792787962 -9.13E-02
   313 Broy./Diag. 0.10E+00    1.5     0.13026899     -5418.4869009016 -8.08E-01
   314 Broy./Diag. 0.10E+00    1.5     0.43332273     -5418.5393693222 -5.25E-02
   315 Broy./Diag. 0.10E+00    1.5     0.09025769     -5416.9352294884  1.60E+00
   316 Broy./Diag. 0.10E+00    1.5     0.11111922     -5416.5489513029  3.86E-01
   317 Broy./Diag. 0.10E+00    1.5     0.29653724     -5415.6444949934  9.04E-01
   318 Broy./Diag. 0.10E+00    1.5     0.28228809     -5414.6334775494  1.01E+00
   319 Broy./Diag. 0.10E+00    1.5     0.11958593     -5414.6952422711 -6.18E-02
   320 Broy./Diag. 0.10E+00    1.5     0.24604417     -5414.5551922599  1.40E-01
   321 Broy./Diag. 0.10E+00    1.5     0.17018423     -5414.4302026576  1.25E-01
   322 Broy./Diag. 0.10E+00    1.5     0.44000264     -5414.1439330907  2.86E-01
   323 Broy./Diag. 0.10E+00    1.5     0.52771493     -5415.0272974729 -8.83E-01
   324 Broy./Diag. 0.10E+00    1.5     0.33878980     -5410.9232823302  4.10E+00
   325 Broy./Diag. 0.10E+00    1.5     0.34382325     -5414.2024026214 -3.28E+00
   326 Broy./Diag. 0.10E+00    1.5     0.40943717     -5415.1359574466 -9.34E-01
   327 Broy./Diag. 0.10E+00    1.5     0.29026779     -5414.5044220045  6.32E-01
   328 Broy./Diag. 0.10E+00    1.5     0.22731163     -5415.3868471296 -8.82E-01
   329 Broy./Diag. 0.10E+00    1.5     0.16616344     -5416.0130756502 -6.26E-01
   330 Broy./Diag. 0.10E+00    1.5     0.15558088     -5416.6224507525 -6.09E-01
   331 Broy./Diag. 0.10E+00    1.5     0.15351329     -5416.7181608996 -9.57E-02
   332 Broy./Diag. 0.10E+00    1.5     0.21987084     -5415.8550093919  8.63E-01
   333 Broy./Diag. 0.10E+00    1.5     0.21247077     -5418.0072363438 -2.15E+00
   334 Broy./Diag. 0.10E+00    1.5     0.29532558     -5417.3421263122  6.65E-01
   335 Broy./Diag. 0.10E+00    1.5     0.12987655     -5418.3838907855 -1.04E+00
   336 Broy./Diag. 0.10E+00    1.5     0.20832903     -5418.2491114648  1.35E-01
   337 Broy./Diag. 0.10E+00    1.5     0.21717154     -5418.7144395832 -4.65E-01
   338 Broy./Diag. 0.10E+00    1.5     0.12069258     -5418.2697761331  4.45E-01
   339 Broy./Diag. 0.10E+00    1.5     0.13467591     -5418.3302791865 -6.05E-02
   340 Broy./Diag. 0.10E+00    1.5     0.45528017     -5418.1304349210  2.00E-01
   341 Broy./Diag. 0.10E+00    1.5     0.27875282     -5418.3397291138 -2.09E-01
   342 Broy./Diag. 0.10E+00    1.5     0.15673090     -5418.2689408218  7.08E-02
   343 Broy./Diag. 0.10E+00    1.5     0.52983741     -5418.7774344511 -5.08E-01
   344 Broy./Diag. 0.10E+00    1.5     0.13696362     -5418.8152857760 -3.79E-02
   345 Broy./Diag. 0.10E+00    1.5     0.19504929     -5418.5765679543  2.39E-01
   346 Broy./Diag. 0.10E+00    1.5     0.38984037     -5418.6672200229 -9.07E-02
   347 Broy./Diag. 0.10E+00    1.5     0.13629717     -5418.3948285460  2.72E-01
   348 Broy./Diag. 0.10E+00    1.5     0.12884728     -5417.9838896034  4.11E-01
   349 Broy./Diag. 0.10E+00    1.5     0.28357802     -5417.9786462323  5.24E-03
   350 Broy./Diag. 0.10E+00    1.5     0.24607231     -5418.4916063933 -5.13E-01
   351 Broy./Diag. 0.10E+00    1.5     0.17519162     -5418.9409589584 -4.49E-01
   352 Broy./Diag. 0.10E+00    1.5     0.62984857     -5418.9280426367  1.29E-02
   353 Broy./Diag. 0.10E+00    1.5     0.19971992     -5418.4472384446  4.81E-01
   354 Broy./Diag. 0.10E+00    1.5     0.29649307     -5418.2974537884  1.50E-01
   355 Broy./Diag. 0.10E+00    1.5     0.10306145     -5418.3454396419 -4.80E-02
   356 Broy./Diag. 0.10E+00    1.5     0.25465944     -5418.4471400297 -1.02E-01
   357 Broy./Diag. 0.10E+00    1.5     0.14464186     -5418.5883632629 -1.41E-01
   358 Broy./Diag. 0.10E+00    1.5     0.35815726     -5418.5081940736  8.02E-02
   359 Broy./Diag. 0.10E+00    1.5     0.30105056     -5417.9199559049  5.88E-01
   360 Broy./Diag. 0.10E+00    1.5     0.15830144     -5418.2896749466 -3.70E-01
   361 Broy./Diag. 0.10E+00    1.5     0.15384556     -5418.6843683403 -3.95E-01
   362 Broy./Diag. 0.10E+00    1.5     0.34661657     -5417.8491766859  8.35E-01
   363 Broy./Diag. 0.10E+00    1.5     0.48751092     -5418.3849857889 -5.36E-01
   364 Broy./Diag. 0.10E+00    1.5     0.34145082     -5418.2473818861  1.38E-01
   365 Broy./Diag. 0.10E+00    1.5     0.33827364     -5418.4099898823 -1.63E-01
   366 Broy./Diag. 0.10E+00    1.5     0.23267146     -5418.4955478533 -8.56E-02
   367 Broy./Diag. 0.10E+00    1.5     0.38999739     -5418.5956686154 -1.00E-01
   368 Broy./Diag. 0.10E+00    1.5     0.09792842     -5417.3657834535  1.23E+00
   369 Broy./Diag. 0.10E+00    1.5     0.08995095     -5417.0524491281  3.13E-01
   370 Broy./Diag. 0.10E+00    1.5     0.33969774     -5416.7338252965  3.19E-01
   371 Broy./Diag. 0.10E+00    1.5     0.33408653     -5418.4883014274 -1.75E+00
   372 Broy./Diag. 0.10E+00    1.5     0.23765080     -5417.7238209823  7.64E-01
   373 Broy./Diag. 0.10E+00    1.5     0.10249724     -5418.5136328698 -7.90E-01
   374 Broy./Diag. 0.10E+00    1.5     0.09034500     -5417.7994100807  7.14E-01
   375 Broy./Diag. 0.10E+00    1.5     0.38082896     -5418.2755270368 -4.76E-01
   376 Broy./Diag. 0.10E+00    1.5     0.63450542     -5417.4891896583  7.86E-01
   377 Broy./Diag. 0.10E+00    1.5     0.69755869     -5419.6007607699 -2.11E+00
   378 Broy./Diag. 0.10E+00    1.5     0.11614746     -5417.8551452222  1.75E+00
   379 Broy./Diag. 0.10E+00    1.5     0.13106846     -5417.1252850447  7.30E-01
   380 Broy./Diag. 0.10E+00    1.5     0.38974411     -5417.3234427352 -1.98E-01
