 DBCSR| CPU Multiplication driver                                           XSMM (U)
 DBCSR| Multrec recursion limit                                              512 (U)
 DBCSR| Multiplication stack size                                           1000 (D)
 DBCSR| Maximum elements for images                                    UNLIMITED (U)
 DBCSR| Multiplicative factor virtual images                                   1 (U)
 DBCSR| Use multiplication densification                                       T (D)
 DBCSR| Multiplication size stacks                                             3 (U)
 DBCSR| Use memory pool for CPU allocation                                     F (U)
 DBCSR| Number of 3D layers                                               SINGLE (U)
 DBCSR| Use MPI memory allocation                                              F (U)
 DBCSR| Use RMA algorithm                                                      F (U)
 DBCSR| Use Communication thread                                               T (U)
 DBCSR| Communication thread load                                             87 (D)
 DBCSR| MPI: My process id                                                     0
 DBCSR| MPI: Number of processes                                             128
 DBCSR| OMP: Current number of threads                                         1
 DBCSR| OMP: Max number of threads                                             1
 DBCSR| Split modifier for TAS multiplication algorithm                  1.0E+00 (U)


  **** **** ******  **  PROGRAM STARTED AT               2023-02-14 15:49:05.290
 ***** ** ***  *** **   PROGRAM STARTED ON                             nid005643
 **    ****   ******    PROGRAM STARTED BY                                cahart
 ***** **    ** ** **   PROGRAM PROCESS ID                                240521
  **** **  *******  **  PROGRAM STARTED IN /mnt/lustre/a2fs-work2/work/e05/e05/c
                                           ahart/postdoc/masters/ni/archer2/slab
                                           /optimise/alpha-beta/scf_1e-4_mos-100
                                           0_temp-2000_spin-0.7-0.5_periodic-xyz
                                           /search/4.0E-02_4.0E-01

 CP2K| version string:                 CP2K version 2023.1 (Development Version)
 CP2K| source code revision number:                                  git:964cd58
 CP2K| cp2kflags: omp libint fftw3 libxc elpa parallel scalapack xsmm plumed2 mk
 CP2K|            l
 CP2K| is freely available from                            https://www.cp2k.org/
 CP2K| Program compiled at                          Mon 13 Feb 17:05:14 GMT 2023
 CP2K| Program compiled on                                                  ln01
 CP2K| Program compiled for                                              ARCHER2
 CP2K| Data directory path    /work/e05/e05/cahart/cp2k/cp2k-2023.1/cp2k-2023.1-
 CP2K| Input file name                                                  cp2k.inp

 GLOBAL| Force Environment number                                              1
 GLOBAL| Basis set file name                                        BASIS_MOLOPT
 GLOBAL| Potential file name                                      GTH_POTENTIALS
 GLOBAL| MM Potential file name                                     MM_POTENTIAL
 GLOBAL| Coordinate file name                                      __STD_INPUT__
 GLOBAL| Method name                                                        CP2K
 GLOBAL| Project name                                                    Ni_bulk
 GLOBAL| Run type                                                         ENERGY
 GLOBAL| FFT library                                                       FFTW3
 GLOBAL| Diagonalization library                                            ELPA
 GLOBAL| DGEMM library                                                      BLAS
 GLOBAL| Minimum number of eigenvectors for ELPA usage                        16
 GLOBAL| Orthonormality check for eigenvectors                          DISABLED
 GLOBAL| Matrix multiplication library                                 ScaLAPACK
 GLOBAL| All-to-all communication in single precision                          F
 GLOBAL| FFTs using library dependent lengths                                  F
 GLOBAL| Grid backend                                                       AUTO
 GLOBAL| Global print level                                               MEDIUM
 GLOBAL| MPI I/O enabled                                                       T
 GLOBAL| Total number of message passing processes                           128
 GLOBAL| Number of threads for this process                                    1
 GLOBAL| This output is from process                                           0
 GLOBAL| Stack size for threads created by OpenMP (OMP_STACKSIZE)        default
 GLOBAL| CPU model name                          AMD EPYC 7742 64-Core Processor
 GLOBAL| CPUID                                                              1002

 MEMORY| system memory details [Kb]
 MEMORY|                        rank 0           min           max       average
 MEMORY| MemTotal            263528084     263528084     263528084     263528084
 MEMORY| MemFree             238607540     238607540     238607540     238607540
 MEMORY| Buffers                 33916         33916         33916         33916
 MEMORY| Cached                 807756        807756        807756        807756
 MEMORY| Slab                  1621336       1621336       1621336       1621336
 MEMORY| SReclaimable           102076        102076        102076        102076
 MEMORY| MemLikelyFree       239551288     239551288     239551288     239551288


 *** Fundamental physical constants (SI units) ***

 *** Literature: B. J. Mohr and B. N. Taylor,
 ***             CODATA recommended values of the fundamental physical
 ***             constants: 2006, Web Version 5.1
 ***             http://physics.nist.gov/constants

 Speed of light in vacuum [m/s]                             2.99792458000000E+08
 Magnetic constant or permeability of vacuum [N/A**2]       1.25663706143592E-06
 Electric constant or permittivity of vacuum [F/m]          8.85418781762039E-12
 Planck constant (h) [J*s]                                  6.62606896000000E-34
 Planck constant (h-bar) [J*s]                              1.05457162825177E-34
 Elementary charge [C]                                      1.60217648700000E-19
 Electron mass [kg]                                         9.10938215000000E-31
 Electron g factor [ ]                                     -2.00231930436220E+00
 Proton mass [kg]                                           1.67262163700000E-27
 Fine-structure constant                                    7.29735253760000E-03
 Rydberg constant [1/m]                                     1.09737315685270E+07
 Avogadro constant [1/mol]                                  6.02214179000000E+23
 Boltzmann constant [J/K]                                   1.38065040000000E-23
 Atomic mass unit [kg]                                      1.66053878200000E-27
 Bohr radius [m]                                            5.29177208590000E-11

 *** Conversion factors ***

 [u] -> [a.u.]                                              1.82288848426455E+03
 [Angstrom] -> [Bohr] = [a.u.]                              1.88972613288564E+00
 [a.u.] = [Bohr] -> [Angstrom]                              5.29177208590000E-01
 [a.u.] -> [s]                                              2.41888432650478E-17
 [a.u.] -> [fs]                                             2.41888432650478E-02
 [a.u.] -> [J]                                              4.35974393937059E-18
 [a.u.] -> [N]                                              8.23872205491840E-08
 [a.u.] -> [K]                                              3.15774647902944E+05
 [a.u.] -> [kJ/mol]                                         2.62549961709828E+03
 [a.u.] -> [kcal/mol]                                       6.27509468713739E+02
 [a.u.] -> [Pa]                                             2.94210107994716E+13
 [a.u.] -> [bar]                                            2.94210107994716E+08
 [a.u.] -> [atm]                                            2.90362800883016E+08
 [a.u.] -> [eV]                                             2.72113838565563E+01
 [a.u.] -> [Hz]                                             6.57968392072181E+15
 [a.u.] -> [1/cm] (wave numbers)                            2.19474631370540E+05
 [a.u./Bohr**2] -> [1/cm]                                   5.14048714338585E+03
 

 CELL_TOP| Volume [angstrom^3]:                                       983.249569
 CELL_TOP| Vector a [angstrom     7.012     0.000     0.000   |a| =     7.011596
 CELL_TOP| Vector b [angstrom     0.000     7.012     0.000   |b| =     7.011596
 CELL_TOP| Vector c [angstrom     0.000     0.000    20.000   |c| =    20.000000
 CELL_TOP| Angle (b,c), alpha [degree]:                                90.000000
 CELL_TOP| Angle (a,c), beta  [degree]:                                90.000000
 CELL_TOP| Angle (a,b), gamma [degree]:                                90.000000
 CELL_TOP| Numerically orthorhombic:                                         YES
 CELL_TOP| Periodicity                                                       XYZ

 GENERATE|  Preliminary Number of Bonds generated:                             0
 GENERATE|  Achieved consistency in connectivity generation.

 CELL| Volume [angstrom^3]:                                           983.249569
 CELL| Vector a [angstrom]:       7.012     0.000     0.000   |a| =     7.011596
 CELL| Vector b [angstrom]:       0.000     7.012     0.000   |b| =     7.011596
 CELL| Vector c [angstrom]:       0.000     0.000    20.000   |c| =    20.000000
 CELL| Angle (b,c), alpha [degree]:                                    90.000000
 CELL| Angle (a,c), beta  [degree]:                                    90.000000
 CELL| Angle (a,b), gamma [degree]:                                    90.000000
 CELL| Numerically orthorhombic:                                             YES
 CELL| Periodicity                                                           XYZ

 CELL_REF| Volume [angstrom^3]:                                       983.249569
 CELL_REF| Vector a [angstrom     7.012     0.000     0.000   |a| =     7.011596
 CELL_REF| Vector b [angstrom     0.000     7.012     0.000   |b| =     7.011596
 CELL_REF| Vector c [angstrom     0.000     0.000    20.000   |c| =    20.000000
 CELL_REF| Angle (b,c), alpha [degree]:                                90.000000
 CELL_REF| Angle (a,c), beta  [degree]:                                90.000000
 CELL_REF| Angle (a,b), gamma [degree]:                                90.000000
 CELL_REF| Numerically orthorhombic:                                         YES
 CELL_REF| Periodicity                                                       XYZ

 *** WARNING in cryssym.F:165 :: Symmetry library SPGLIB not available ***


 *******************************************************************************
                                    Kpoints
 *******************************************************************************
 BRILLOUIN| K-point scheme                                        Monkhorst-Pack
 BRILLOUIN| K-Point grid                                             4    4    1
 BRILLOUIN| Accuracy in Symmetry determination                      0.100000E-05
 BRILLOUIN| K-Point point group symmetrization                               OFF
 BRILLOUIN| Wavefunction type                                            COMPLEX
 BRILLOUIN| List of Kpoints [2 Pi/Bohr]                                        8
 BRILLOUIN| Number           Weight            X              Y              Z
 BRILLOUIN|     1           0.12500       -0.37500       -0.37500        0.00000
 BRILLOUIN|     2           0.12500       -0.37500       -0.12500        0.00000
 BRILLOUIN|     3           0.12500       -0.37500        0.12500        0.00000
 BRILLOUIN|     4           0.12500       -0.37500        0.37500        0.00000
 BRILLOUIN|     5           0.12500       -0.12500       -0.37500        0.00000
 BRILLOUIN|     6           0.12500       -0.12500       -0.12500        0.00000
 BRILLOUIN|     7           0.12500       -0.12500        0.12500        0.00000
 BRILLOUIN|     8           0.12500       -0.12500        0.37500        0.00000
 *******************************************************************************

 *******************************************************************************
 *******************************************************************************
 **                                                                           **
 **     #####                         ##              ##                      **
 **    ##   ##            ##          ##              ##                      **
 **   ##     ##                       ##            ######                    **
 **   ##     ##  ##   ##  ##   #####  ##  ##   ####   ##    #####    #####    **
 **   ##     ##  ##   ##  ##  ##      ## ##   ##      ##   ##   ##  ##   ##   **
 **   ##  ## ##  ##   ##  ##  ##      ####     ###    ##   ######   ######    **
 **    ##  ###   ##   ##  ##  ##      ## ##      ##   ##   ##       ##        **
 **     #######   #####   ##   #####  ##  ##  ####    ##    #####   ##        **
 **           ##                                                    ##        **
 **                                                                           **
 **                                                ... make the atoms dance   **
 **                                                                           **
 **            Copyright (C) by CP2K developers group (2000-2023)             **
 **                      J. Chem. Phys. 152, 194103 (2020)                    **
 **                                                                           **
 *******************************************************************************

 *** WARNING in qs_environment.F:1456 :: Number of electrons will be ***
 *** overwritten by NELEC_ALPHA and NELEC_BETA, multiplicity will be ***
 *** ignored.                                                        ***

 Number of electrons should be                                               576
 Sum of NELEC_ALPHA and NELEC_BETA is                                    576.000

 *** WARNING in qs_environment.F:1488 :: NELEC_ALPHA is not an integer, ***
 *** many features will not be supported.                               ***


 *** WARNING in qs_environment.F:1500 :: NELEC_BETA is not an integer, ***
 *** many features will not be supported.                              ***


 *** WARNING in qs_environment.F:1532 :: More ADDED_MOs requested for beta ***
 *** spin than available.                                                  ***


 *** WARNING in qs_environment.F:1548 :: More added MOs requested than     ***
 *** available. The full set of unoccupied MOs will be used. Use           ***
 *** 'ADDED_MOS -1' to always use all available MOs and to get rid of this ***
 *** warning.                                                              ***


 DFT| Spin unrestricted (spin-polarized) Kohn-Sham calculation               UKS
 DFT| Multiplicity                                                             1
 DFT| Number of spin states                                                    2
 DFT| Charge                                                                   0
 DFT| Self-interaction correction (SIC)                                       NO
 DFT| Cutoffs: density                                              1.000000E-10
 DFT|          gradient                                             1.000000E-10
 DFT|          tau                                                  1.000000E-10
 DFT|          cutoff_smoothing_range                               0.000000E+00
 DFT| XC density smoothing                                                  NONE
 DFT| XC derivatives                                                          PW

 FUNCTIONAL| PBE:
 FUNCTIONAL| J.P.Perdew, K.Burke, M.Ernzerhof, Phys. Rev. Letter, vol. 77, n 18,
 FUNCTIONAL|  pp. 3865-3868, (1996){spin polarized}                             

 vdW POTENTIAL|                                                   Pair Potential
 vdW POTENTIAL|          DFT-D3 (Version 3.1)
 vdW POTENTIAL|          Potential Form: S. Grimme et al, JCP 132: 154104 (2010)
 vdW POTENTIAL|          Zero Damping
 vdW POTENTIAL|          Cutoff Radius [Bohr]:                             20.00
 vdW POTENTIAL|          s6 Scaling Factor:                               1.0000
 vdW POTENTIAL|          sr6 Scaling Factor:                              1.2170
 vdW POTENTIAL|          s8 Scaling Factor:                               0.7220
 vdW POTENTIAL|          Cutoff for CN calculation:                   0.1000E-05

 QS| Method:                                                                 GPW
 QS| Density plane wave grid type                        NON-SPHERICAL FULLSPACE
 QS| Number of grid levels:                                                    5
 QS| Density cutoff [a.u.]:                                                300.0
 QS| Multi grid cutoff [a.u.]: 1) grid level                               300.0
 QS|                           2) grid level                               100.0
 QS|                           3) grid level                                33.3
 QS|                           4) grid level                                11.1
 QS|                           5) grid level                                 3.7
 QS| Grid level progression factor:                                          3.0
 QS| Relative density cutoff [a.u.]:                                        30.0
 QS| Interaction thresholds: eps_pgf_orb:                                1.0E-06
 QS|                         eps_filter_matrix:                          0.0E+00
 QS|                         eps_core_charge:                            1.0E-14
 QS|                         eps_rho_gspace:                             1.0E-12
 QS|                         eps_rho_rspace:                             1.0E-12
 QS|                         eps_gvg_rspace:                             1.0E-06
 QS|                         eps_ppl:                                    1.0E-02
 QS|                         eps_ppnl:                                   1.0E-08


 ATOMIC KIND INFORMATION

  1. Atomic kind: Ni_i                                  Number of atoms:      16

     Orbital Basis Set                                        DZVP-MOLOPT-SR-GTH

       Number of orbital shell sets:                                           1
       Number of orbital shells:                                               8
       Number of primitive Cartesian functions:                                6
       Number of Cartesian basis functions:                                   31
       Number of spherical basis functions:                                   26
       Norm type:                                                              2

       Normalised Cartesian orbitals:

                        Set   Shell   Orbital            Exponent    Coefficient

                          1       1    2s               10.077428      -0.684558
                                                         5.847736      -0.844524
                                                         2.494033       1.088856
                                                         0.988355       0.395503
                                                         0.344978       0.010224
                                                         0.099466      -0.003250

                          1       2    3s               10.077428       0.096747
                                                         5.847736       0.162504
                                                         2.494033      -0.297192
                                                         0.988355      -0.319752
                                                         0.344978       0.088318
                                                         0.099466       0.118587

                          1       3    4s               10.077428       0.036437
                                                         5.847736      -0.381480
                                                         2.494033       0.003759
                                                         0.988355      -1.048256
                                                         0.344978       0.855825
                                                         0.099466      -0.176350

                          1       4    3px              10.077428      -3.133913
                                                         5.847736       3.027656
                                                         2.494033       2.353227
                                                         0.988355       0.554184
                                                         0.344978       0.019462
                                                         0.099466      -0.000291
                          1       4    3py              10.077428      -3.133913
                                                         5.847736       3.027656
                                                         2.494033       2.353227
                                                         0.988355       0.554184
                                                         0.344978       0.019462
                                                         0.099466      -0.000291
                          1       4    3pz              10.077428      -3.133913
                                                         5.847736       3.027656
                                                         2.494033       2.353227
                                                         0.988355       0.554184
                                                         0.344978       0.019462
                                                         0.099466      -0.000291

                          1       5    4px              10.077428      -0.112729
                                                         5.847736      -0.114008
                                                         2.494033      -0.347303
                                                         0.988355      -0.110323
                                                         0.344978       0.154096
                                                         0.099466       0.058386
                          1       5    4py              10.077428      -0.112729
                                                         5.847736      -0.114008
                                                         2.494033      -0.347303
                                                         0.988355      -0.110323
                                                         0.344978       0.154096
                                                         0.099466       0.058386
                          1       5    4pz              10.077428      -0.112729
                                                         5.847736      -0.114008
                                                         2.494033      -0.347303
                                                         0.988355      -0.110323
                                                         0.344978       0.154096
                                                         0.099466       0.058386

                          1       6    4dx2             10.077428       8.232726
                                                         5.847736       9.105758
                                                         2.494033       2.849835
                                                         0.988355       0.554319
                                                         0.344978       0.067245
                                                         0.099466       0.001940
                          1       6    4dxy             10.077428      14.259500
                                                         5.847736      15.771636
                                                         2.494033       4.936060
                                                         0.988355       0.960109
                                                         0.344978       0.116472
                                                         0.099466       0.003360
                          1       6    4dxz             10.077428      14.259500
                                                         5.847736      15.771636
                                                         2.494033       4.936060
                                                         0.988355       0.960109
                                                         0.344978       0.116472
                                                         0.099466       0.003360
                          1       6    4dy2             10.077428       8.232726
                                                         5.847736       9.105758
                                                         2.494033       2.849835
                                                         0.988355       0.554319
                                                         0.344978       0.067245
                                                         0.099466       0.001940
                          1       6    4dyz             10.077428      14.259500
                                                         5.847736      15.771636
                                                         2.494033       4.936060
                                                         0.988355       0.960109
                                                         0.344978       0.116472
                                                         0.099466       0.003360
                          1       6    4dz2             10.077428       8.232726
                                                         5.847736       9.105758
                                                         2.494033       2.849835
                                                         0.988355       0.554319
                                                         0.344978       0.067245
                                                         0.099466       0.001940

                          1       7    5dx2             10.077428      -2.715373
                                                         5.847736      -4.020640
                                                         2.494033      -1.397569
                                                         0.988355      -0.076143
                                                         0.344978       0.033435
                                                         0.099466       0.026032
                          1       7    5dxy             10.077428      -4.703164
                                                         5.847736      -6.963952
                                                         2.494033      -2.420661
                                                         0.988355      -0.131883
                                                         0.344978       0.057911
                                                         0.099466       0.045088
                          1       7    5dxz             10.077428      -4.703164
                                                         5.847736      -6.963952
                                                         2.494033      -2.420661
                                                         0.988355      -0.131883
                                                         0.344978       0.057911
                                                         0.099466       0.045088
                          1       7    5dy2             10.077428      -2.715373
                                                         5.847736      -4.020640
                                                         2.494033      -1.397569
                                                         0.988355      -0.076143
                                                         0.344978       0.033435
                                                         0.099466       0.026032
                          1       7    5dyz             10.077428      -4.703164
                                                         5.847736      -6.963952
                                                         2.494033      -2.420661
                                                         0.988355      -0.131883
                                                         0.344978       0.057911
                                                         0.099466       0.045088
                          1       7    5dz2             10.077428      -2.715373
                                                         5.847736      -4.020640
                                                         2.494033      -1.397569
                                                         0.988355      -0.076143
                                                         0.344978       0.033435
                                                         0.099466       0.026032

                          1       8    5fx3             10.077428      -0.467694
                                                         5.847736       0.618100
                                                         2.494033       0.066069
                                                         0.988355       0.262898
                                                         0.344978       0.004720
                                                         0.099466       0.007748
                          1       8    5fx2y            10.077428      -1.045795
                                                         5.847736       1.382114
                                                         2.494033       0.147734
                                                         0.988355       0.587859
                                                         0.344978       0.010555
                                                         0.099466       0.017325
                          1       8    5fx2z            10.077428      -1.045795
                                                         5.847736       1.382114
                                                         2.494033       0.147734
                                                         0.988355       0.587859
                                                         0.344978       0.010555
                                                         0.099466       0.017325
                          1       8    5fxy2            10.077428      -1.045795
                                                         5.847736       1.382114
                                                         2.494033       0.147734
                                                         0.988355       0.587859
                                                         0.344978       0.010555
                                                         0.099466       0.017325
                          1       8    5fxyz            10.077428      -1.811371
                                                         5.847736       2.393892
                                                         2.494033       0.255883
                                                         0.988355       1.018201
                                                         0.344978       0.018282
                                                         0.099466       0.030008
                          1       8    5fxz2            10.077428      -1.045795
                                                         5.847736       1.382114
                                                         2.494033       0.147734
                                                         0.988355       0.587859
                                                         0.344978       0.010555
                                                         0.099466       0.017325
                          1       8    5fy3             10.077428      -0.467694
                                                         5.847736       0.618100
                                                         2.494033       0.066069
                                                         0.988355       0.262898
                                                         0.344978       0.004720
                                                         0.099466       0.007748
                          1       8    5fy2z            10.077428      -1.045795
                                                         5.847736       1.382114
                                                         2.494033       0.147734
                                                         0.988355       0.587859
                                                         0.344978       0.010555
                                                         0.099466       0.017325
                          1       8    5fyz2            10.077428      -1.045795
                                                         5.847736       1.382114
                                                         2.494033       0.147734
                                                         0.988355       0.587859
                                                         0.344978       0.010555
                                                         0.099466       0.017325
                          1       8    5fz3             10.077428      -0.467694
                                                         5.847736       0.618100
                                                         2.494033       0.066069
                                                         0.988355       0.262898
                                                         0.344978       0.004720
                                                         0.099466       0.007748

       Atomic covalent radius [Angstrom]:                                  1.150

       Atomic van der Waals radius [Angstrom]:                             1.630

     GTH Potential information for                                   GTH-PBE-q18

       Description:                       Goedecker-Teter-Hutter pseudopotential
                                           Goedecker et al., PRB 54, 1703 (1996)
                                          Hartwigsen et al., PRB 58, 3641 (1998)
                                                      Krack, TCA 114, 145 (2005)

       Gaussian exponent of the core charge distribution:               4.081633
       Electronic configuration (s p d ...):                           4   6   8

       Parameters of the local part of the GTH pseudopotential:

                          rloc        C1          C2          C3          C4
                        0.350000    2.102166    0.648484

       Parameters of the non-local part of the GTH pseudopotential:

                   l      r(l)      h(i,j,l)

                   0    0.261295    0.622658    9.970227
                                    9.970227  -12.871507
                   1    0.224253  -11.142708   12.429566
                                   12.429566  -14.706861
                   2    0.215348  -12.628146

  2. Atomic kind: Ni_b                                  Number of atoms:      16

     Orbital Basis Set                                        DZVP-MOLOPT-SR-GTH

       Number of orbital shell sets:                                           1
       Number of orbital shells:                                               8
       Number of primitive Cartesian functions:                                6
       Number of Cartesian basis functions:                                   31
       Number of spherical basis functions:                                   26
       Norm type:                                                              2

       Normalised Cartesian orbitals:

                        Set   Shell   Orbital            Exponent    Coefficient

                          1       1    2s               10.077428      -0.684558
                                                         5.847736      -0.844524
                                                         2.494033       1.088856
                                                         0.988355       0.395503
                                                         0.344978       0.010224
                                                         0.099466      -0.003250

                          1       2    3s               10.077428       0.096747
                                                         5.847736       0.162504
                                                         2.494033      -0.297192
                                                         0.988355      -0.319752
                                                         0.344978       0.088318
                                                         0.099466       0.118587

                          1       3    4s               10.077428       0.036437
                                                         5.847736      -0.381480
                                                         2.494033       0.003759
                                                         0.988355      -1.048256
                                                         0.344978       0.855825
                                                         0.099466      -0.176350

                          1       4    3px              10.077428      -3.133913
                                                         5.847736       3.027656
                                                         2.494033       2.353227
                                                         0.988355       0.554184
                                                         0.344978       0.019462
                                                         0.099466      -0.000291
                          1       4    3py              10.077428      -3.133913
                                                         5.847736       3.027656
                                                         2.494033       2.353227
                                                         0.988355       0.554184
                                                         0.344978       0.019462
                                                         0.099466      -0.000291
                          1       4    3pz              10.077428      -3.133913
                                                         5.847736       3.027656
                                                         2.494033       2.353227
                                                         0.988355       0.554184
                                                         0.344978       0.019462
                                                         0.099466      -0.000291

                          1       5    4px              10.077428      -0.112729
                                                         5.847736      -0.114008
                                                         2.494033      -0.347303
                                                         0.988355      -0.110323
                                                         0.344978       0.154096
                                                         0.099466       0.058386
                          1       5    4py              10.077428      -0.112729
                                                         5.847736      -0.114008
                                                         2.494033      -0.347303
                                                         0.988355      -0.110323
                                                         0.344978       0.154096
                                                         0.099466       0.058386
                          1       5    4pz              10.077428      -0.112729
                                                         5.847736      -0.114008
                                                         2.494033      -0.347303
                                                         0.988355      -0.110323
                                                         0.344978       0.154096
                                                         0.099466       0.058386

                          1       6    4dx2             10.077428       8.232726
                                                         5.847736       9.105758
                                                         2.494033       2.849835
                                                         0.988355       0.554319
                                                         0.344978       0.067245
                                                         0.099466       0.001940
                          1       6    4dxy             10.077428      14.259500
                                                         5.847736      15.771636
                                                         2.494033       4.936060
                                                         0.988355       0.960109
                                                         0.344978       0.116472
                                                         0.099466       0.003360
                          1       6    4dxz             10.077428      14.259500
                                                         5.847736      15.771636
                                                         2.494033       4.936060
                                                         0.988355       0.960109
                                                         0.344978       0.116472
                                                         0.099466       0.003360
                          1       6    4dy2             10.077428       8.232726
                                                         5.847736       9.105758
                                                         2.494033       2.849835
                                                         0.988355       0.554319
                                                         0.344978       0.067245
                                                         0.099466       0.001940
                          1       6    4dyz             10.077428      14.259500
                                                         5.847736      15.771636
                                                         2.494033       4.936060
                                                         0.988355       0.960109
                                                         0.344978       0.116472
                                                         0.099466       0.003360
                          1       6    4dz2             10.077428       8.232726
                                                         5.847736       9.105758
                                                         2.494033       2.849835
                                                         0.988355       0.554319
                                                         0.344978       0.067245
                                                         0.099466       0.001940

                          1       7    5dx2             10.077428      -2.715373
                                                         5.847736      -4.020640
                                                         2.494033      -1.397569
                                                         0.988355      -0.076143
                                                         0.344978       0.033435
                                                         0.099466       0.026032
                          1       7    5dxy             10.077428      -4.703164
                                                         5.847736      -6.963952
                                                         2.494033      -2.420661
                                                         0.988355      -0.131883
                                                         0.344978       0.057911
                                                         0.099466       0.045088
                          1       7    5dxz             10.077428      -4.703164
                                                         5.847736      -6.963952
                                                         2.494033      -2.420661
                                                         0.988355      -0.131883
                                                         0.344978       0.057911
                                                         0.099466       0.045088
                          1       7    5dy2             10.077428      -2.715373
                                                         5.847736      -4.020640
                                                         2.494033      -1.397569
                                                         0.988355      -0.076143
                                                         0.344978       0.033435
                                                         0.099466       0.026032
                          1       7    5dyz             10.077428      -4.703164
                                                         5.847736      -6.963952
                                                         2.494033      -2.420661
                                                         0.988355      -0.131883
                                                         0.344978       0.057911
                                                         0.099466       0.045088
                          1       7    5dz2             10.077428      -2.715373
                                                         5.847736      -4.020640
                                                         2.494033      -1.397569
                                                         0.988355      -0.076143
                                                         0.344978       0.033435
                                                         0.099466       0.026032

                          1       8    5fx3             10.077428      -0.467694
                                                         5.847736       0.618100
                                                         2.494033       0.066069
                                                         0.988355       0.262898
                                                         0.344978       0.004720
                                                         0.099466       0.007748
                          1       8    5fx2y            10.077428      -1.045795
                                                         5.847736       1.382114
                                                         2.494033       0.147734
                                                         0.988355       0.587859
                                                         0.344978       0.010555
                                                         0.099466       0.017325
                          1       8    5fx2z            10.077428      -1.045795
                                                         5.847736       1.382114
                                                         2.494033       0.147734
                                                         0.988355       0.587859
                                                         0.344978       0.010555
                                                         0.099466       0.017325
                          1       8    5fxy2            10.077428      -1.045795
                                                         5.847736       1.382114
                                                         2.494033       0.147734
                                                         0.988355       0.587859
                                                         0.344978       0.010555
                                                         0.099466       0.017325
                          1       8    5fxyz            10.077428      -1.811371
                                                         5.847736       2.393892
                                                         2.494033       0.255883
                                                         0.988355       1.018201
                                                         0.344978       0.018282
                                                         0.099466       0.030008
                          1       8    5fxz2            10.077428      -1.045795
                                                         5.847736       1.382114
                                                         2.494033       0.147734
                                                         0.988355       0.587859
                                                         0.344978       0.010555
                                                         0.099466       0.017325
                          1       8    5fy3             10.077428      -0.467694
                                                         5.847736       0.618100
                                                         2.494033       0.066069
                                                         0.988355       0.262898
                                                         0.344978       0.004720
                                                         0.099466       0.007748
                          1       8    5fy2z            10.077428      -1.045795
                                                         5.847736       1.382114
                                                         2.494033       0.147734
                                                         0.988355       0.587859
                                                         0.344978       0.010555
                                                         0.099466       0.017325
                          1       8    5fyz2            10.077428      -1.045795
                                                         5.847736       1.382114
                                                         2.494033       0.147734
                                                         0.988355       0.587859
                                                         0.344978       0.010555
                                                         0.099466       0.017325
                          1       8    5fz3             10.077428      -0.467694
                                                         5.847736       0.618100
                                                         2.494033       0.066069
                                                         0.988355       0.262898
                                                         0.344978       0.004720
                                                         0.099466       0.007748

       Atomic covalent radius [Angstrom]:                                  1.150

       Atomic van der Waals radius [Angstrom]:                             1.630

     GTH Potential information for                                   GTH-PBE-q18

       Description:                       Goedecker-Teter-Hutter pseudopotential
                                           Goedecker et al., PRB 54, 1703 (1996)
                                          Hartwigsen et al., PRB 58, 3641 (1998)
                                                      Krack, TCA 114, 145 (2005)

       Gaussian exponent of the core charge distribution:               4.081633
       Electronic configuration (s p d ...):                           4   6   8

       Parameters of the local part of the GTH pseudopotential:

                          rloc        C1          C2          C3          C4
                        0.350000    2.102166    0.648484

       Parameters of the non-local part of the GTH pseudopotential:

                   l      r(l)      h(i,j,l)

                   0    0.261295    0.622658    9.970227
                                    9.970227  -12.871507
                   1    0.224253  -11.142708   12.429566
                                   12.429566  -14.706861
                   2    0.215348  -12.628146


 MOLECULE KIND INFORMATION


 All atoms are their own molecule, skipping detailed information


 TOTAL NUMBERS AND MAXIMUM NUMBERS

  Total number of            - Atomic kinds:                                   2
                             - Atoms:                                         32
                             - Shell sets:                                    32
                             - Shells:                                       256
                             - Primitive Cartesian functions:                192
                             - Cartesian basis functions:                    992
                             - Spherical basis functions:                    832

  Maximum angular momentum of- Orbital basis functions:                        3
                             - Local part of the GTH pseudopotential:          2
                             - Non-local part of the GTH pseudopotential:      3


 MODULE QUICKSTEP: ATOMIC COORDINATES IN ANGSTROM

   Atom Kind Element         X             Y             Z       Z(eff)     Mass
      1    1 Ni   28      0.876298      0.876298      7.370500  18.0000  58.6934
      2    1 Ni   28      0.876298      4.382298      7.370500  18.0000  58.6934
      3    1 Ni   28      2.629298      2.629298      7.370500  18.0000  58.6934
      4    1 Ni   28      2.629298      6.135298      7.370500  18.0000  58.6934
      5    1 Ni   28      4.382298      0.876298      7.370500  18.0000  58.6934
      6    1 Ni   28      4.382298      4.382298      7.370500  18.0000  58.6934
      7    1 Ni   28      6.135298      2.629298      7.370500  18.0000  58.6934
      8    1 Ni   28      6.135298      6.135298      7.370500  18.0000  58.6934
      9    2 Ni   28      0.876298      2.629298      9.123500  18.0000  58.6934
     10    2 Ni   28      0.876298      6.135298      9.123500  18.0000  58.6934
     11    2 Ni   28      2.629298      0.876298      9.123500  18.0000  58.6934
     12    2 Ni   28      2.629298      4.382298      9.123500  18.0000  58.6934
     13    2 Ni   28      4.382298      2.629298      9.123500  18.0000  58.6934
     14    2 Ni   28      4.382298      6.135298      9.123500  18.0000  58.6934
     15    2 Ni   28      6.135298      0.876298      9.123500  18.0000  58.6934
     16    2 Ni   28      6.135298      4.382298      9.123500  18.0000  58.6934
     17    2 Ni   28      0.876298      0.876298     10.876500  18.0000  58.6934
     18    2 Ni   28      0.876298      4.382298     10.876500  18.0000  58.6934
     19    2 Ni   28      2.629298      2.629298     10.876500  18.0000  58.6934
     20    2 Ni   28      2.629298      6.135298     10.876500  18.0000  58.6934
     21    2 Ni   28      4.382298      0.876298     10.876500  18.0000  58.6934
     22    2 Ni   28      4.382298      4.382298     10.876500  18.0000  58.6934
     23    2 Ni   28      6.135298      2.629298     10.876500  18.0000  58.6934
     24    2 Ni   28      6.135298      6.135298     10.876500  18.0000  58.6934
     25    1 Ni   28      0.876298      2.629298     12.629500  18.0000  58.6934
     26    1 Ni   28      0.876298      6.135298     12.629500  18.0000  58.6934
     27    1 Ni   28      2.629298      0.876298     12.629500  18.0000  58.6934
     28    1 Ni   28      2.629298      4.382298     12.629500  18.0000  58.6934
     29    1 Ni   28      4.382298      2.629298     12.629500  18.0000  58.6934
     30    1 Ni   28      4.382298      6.135298     12.629500  18.0000  58.6934
     31    1 Ni   28      6.135298      0.876298     12.629500  18.0000  58.6934
     32    1 Ni   28      6.135298      4.382298     12.629500  18.0000  58.6934



 SCF PARAMETERS         Density guess:                                    ATOMIC
                        --------------------------------------------------------
                        max_scf:                                             500
                        max_scf_history:                                       0
                        max_diis:                                              4
                        --------------------------------------------------------
                        eps_scf:                                        1.00E-04
                        eps_scf_history:                                0.00E+00
                        eps_diis:                                       1.00E-01
                        eps_eigval:                                     1.00E-05
                        --------------------------------------------------------
                        level_shift [a.u.]:                             0.000000
                        added MOs                                       534  553
                        --------------------------------------------------------
                        Mixing method:                            BROYDEN_MIXING
                                                charge density mixing in g-space
                        --------------------------------------------------------
                        Smear method:                                FERMI_DIRAC
                        Electronic temperature [K]:                       2000.0
                        Electronic temperature [a.u.]:                  6.33E-03
                        Accuracy threshold:                             1.00E-10
                        --------------------------------------------------------
                        No outer SCF

 PW_GRID| Information for grid number                                          1
 PW_GRID| Grid distributed over                                   128 processors
 PW_GRID| Real space group dimensions                                     8   16
 PW_GRID| the grid is blocked:                                               YES
 PW_GRID| Cutoff [a.u.]                                                    300.0
 PW_GRID| spherical cutoff:                                                   NO
 PW_GRID|   Bounds   1            -54      53                Points:         108
 PW_GRID|   Bounds   2            -54      53                Points:         108
 PW_GRID|   Bounds   3           -150     149                Points:         300
 PW_GRID| Volume element (a.u.^3)  0.1896E-02     Volume (a.u.^3)      6635.2971
 PW_GRID| Grid span                                                    FULLSPACE
 PW_GRID|   Distribution                         Average         Max         Min
 PW_GRID|   G-Vectors                            27337.5       28728       25272
 PW_GRID|   G-Rays                                 253.1         266         234
 PW_GRID|   Real Space Points                    27337.5       28728       25272

 PW_GRID| Information for grid number                                          2
 PW_GRID| Number of the reference grid                                         1
 PW_GRID| Grid distributed over                                   128 processors
 PW_GRID| Real space group dimensions                                     8   16
 PW_GRID| the grid is blocked:                                                NO
 PW_GRID| Cutoff [a.u.]                                                    100.0
 PW_GRID| spherical cutoff:                                                   NO
 PW_GRID|   Bounds   1            -30      29                Points:          60
 PW_GRID|   Bounds   2            -30      29                Points:          60
 PW_GRID|   Bounds   3            -90      89                Points:         180
 PW_GRID| Volume element (a.u.^3)  0.1024E-01     Volume (a.u.^3)      6635.2971
 PW_GRID| Grid span                                                    FULLSPACE
 PW_GRID|   Distribution                         Average         Max         Min
 PW_GRID|   G-Vectors                             5062.5       15960           0
 PW_GRID|   G-Rays                                  84.4         266           0
 PW_GRID|   Real Space Points                     5062.5        5760        3780

 PW_GRID| Information for grid number                                          3
 PW_GRID| Number of the reference grid                                         1
 PW_GRID| Grid distributed over                                   128 processors
 PW_GRID| Real space group dimensions                                     8   16
 PW_GRID| the grid is blocked:                                                NO
 PW_GRID| Cutoff [a.u.]                                                     33.3
 PW_GRID| spherical cutoff:                                                   NO
 PW_GRID|   Bounds   1            -18      17                Points:          36
 PW_GRID|   Bounds   2            -18      17                Points:          36
 PW_GRID|   Bounds   3            -50      49                Points:         100
 PW_GRID| Volume element (a.u.^3)  0.5120E-01     Volume (a.u.^3)      6635.2971
 PW_GRID| Grid span                                                    FULLSPACE
 PW_GRID|   Distribution                         Average         Max         Min
 PW_GRID|   G-Vectors                             1012.5        9576           0
 PW_GRID|   G-Rays                                  28.1         266           0
 PW_GRID|   Real Space Points                     1012.5        1500         800

 PW_GRID| Information for grid number                                          4
 PW_GRID| Number of the reference grid                                         1
 PW_GRID| Grid distributed over                                   128 processors
 PW_GRID| Real space group dimensions                                     8   16
 PW_GRID| the grid is blocked:                                                NO
 PW_GRID| Cutoff [a.u.]                                                     11.1
 PW_GRID| spherical cutoff:                                                   NO
 PW_GRID|   Bounds   1            -10       9                Points:          20
 PW_GRID|   Bounds   2            -10       9                Points:          20
 PW_GRID|   Bounds   3            -30      29                Points:          60
 PW_GRID| Volume element (a.u.^3)  0.2765         Volume (a.u.^3)      6635.2971
 PW_GRID| Grid span                                                    FULLSPACE
 PW_GRID|   Distribution                         Average         Max         Min
 PW_GRID|   G-Vectors                              187.5        3800           0
 PW_GRID|   G-Rays                                   9.4         190           0
 PW_GRID|   Real Space Points                      187.5         360         120

 PW_GRID| Information for grid number                                          5
 PW_GRID| Number of the reference grid                                         1
 PW_GRID| Grid distributed over                                   128 processors
 PW_GRID| Real space group dimensions                                     8   16
 PW_GRID| the grid is blocked:                                                NO
 PW_GRID| Cutoff [a.u.]                                                      3.7
 PW_GRID| spherical cutoff:                                                   NO
 PW_GRID|   Bounds   1             -6       5                Points:          12
 PW_GRID|   Bounds   2             -6       5                Points:          12
 PW_GRID|   Bounds   3            -18      17                Points:          36
 PW_GRID| Volume element (a.u.^3)   1.280         Volume (a.u.^3)      6635.2971
 PW_GRID| Grid span                                                    FULLSPACE
 PW_GRID|   Distribution                         Average         Max         Min
 PW_GRID|   G-Vectors                               40.5        1296           0
 PW_GRID|   G-Rays                                   3.4         108           0
 PW_GRID|   Real Space Points                       40.5          72           0

 POISSON| Solver                                                        PERIODIC
 POISSON| Periodicity                                                        XYZ

 RS_GRID| Information for grid number                                          1
 RS_GRID|   Bounds   1            -54      53                Points:         108
 RS_GRID|   Bounds   2            -54      53                Points:         108
 RS_GRID|   Bounds   3           -150     149                Points:         300
 RS_GRID| Real space distribution over                                  8 groups
 RS_GRID| Real space distribution along direction                              2
 RS_GRID| Border size                                                         28
 RS_GRID| Real space distribution over                                 16 groups
 RS_GRID| Real space distribution along direction                              3
 RS_GRID| Border size                                                         28
 RS_GRID|   Distribution                         Average         Max         Min
 RS_GRID|   Planes                                  69.5          70          69
 RS_GRID|   Distribution                         Average         Max         Min
 RS_GRID|   Planes                                  74.8          75          74

 RS_GRID| Information for grid number                                          2
 RS_GRID|   Bounds   1            -30      29                Points:          60
 RS_GRID|   Bounds   2            -30      29                Points:          60
 RS_GRID|   Bounds   3            -90      89                Points:         180
 RS_GRID| Real space fully replicated
 RS_GRID| Group size                                                           1

 RS_GRID| Information for grid number                                          3
 RS_GRID|   Bounds   1            -18      17                Points:          36
 RS_GRID|   Bounds   2            -18      17                Points:          36
 RS_GRID|   Bounds   3            -50      49                Points:         100
 RS_GRID| Real space fully replicated
 RS_GRID| Group size                                                           1

 RS_GRID| Information for grid number                                          4
 RS_GRID|   Bounds   1            -10       9                Points:          20
 RS_GRID|   Bounds   2            -10       9                Points:          20
 RS_GRID|   Bounds   3            -30      29                Points:          60
 RS_GRID| Real space fully replicated
 RS_GRID| Group size                                                           1

 RS_GRID| Information for grid number                                          5
 RS_GRID|   Bounds   1             -6       5                Points:          12
 RS_GRID|   Bounds   2             -6       5                Points:          12
 RS_GRID|   Bounds   3            -18      17                Points:          36
 RS_GRID| Real space fully replicated
 RS_GRID| Group size                                                           1

 Spin 1

 Number of electrons:                                                        297.600
 Number of occupied orbitals:                                                298
 Number of molecular orbitals:                                               832

 Spin 2

 Number of electrons:                                                        278.400
 Number of occupied orbitals:                                                279
 Number of molecular orbitals:                                               832

 Number of orbital functions:                                                832
 Number of independent orbital functions:                                    832

 Extrapolation method: initial_guess

 Atomic guess: The first density matrix is obtained in terms of atomic orbitals
               and electronic configurations assigned to each atomic kind

 Guess for atomic kind: Ni_i

 Electronic structure
    Total number of core electrons                                         10.00
    Total number of valence electrons                                      18.00
    Total number of electrons                                              28.00
    Multiplicity                                                         doublet
    Alpha Electrons
    S   [  1.00  1.00] 1.00  1.00
    P   [  3.00] 3.00
    D      4.35
    Beta Electrons
    S   [  1.00  1.00] 1.00  1.00
    P   [  3.00] 3.00
    D      3.65


 *******************************************************************************
                  Iteration          Convergence                     Energy [au]
 *******************************************************************************
                          1         1.51729                    -167.067424631347
                          2         15.3902                    -156.642654318634
                          3         2.33433                    -168.319355313541
                          4        0.206730                    -168.609905008081
                          5        0.814175E-01                -168.612873080494
                          6        0.173318E-01                -168.613470181066
                          7        0.290432E-02                -168.613543571401
                          8        0.311825E-02                -168.613543401474
                          9        0.179670E-03                -168.613544404477
                         10        0.169386E-02                -168.613544207811
                         11        0.473341E-03                -168.613544360253
                         12        0.165417E-03                -168.613544400419
                         13        0.162622E-03                -168.613544401489
                         14        0.158325E-03                -168.613544403900
                         15        0.177007E-03                -168.613544402509
                         16        0.138916E-03                -168.613544404900
                         17        0.934549E-04                -168.613544406149
                         18        0.119916E-03                -168.613544405789
                         19        0.131607E-03                -168.613544405591
                         20        0.169309E-03                -168.613544404773
                         21        0.551337E-04                -168.613544406656
                         22        0.382664E-04                -168.613544406759
                         23        0.378942E-04                -168.613544406765
                         24        0.381089E-04                -168.613544406765
                         25        0.390835E-04                -168.613544406759
                         26        0.308614E-04                -168.613544406841
                         27        0.205044E-04                -168.613544406892
                         28        0.200942E-04                -168.613544406893
                         29        0.199375E-04                -168.613544406893
                         30        0.200198E-04                -168.613544406894
                         31        0.161325E-04                -168.613544406903
                         32        0.330614E-05                -168.613544406925
                         33        0.238713E-05                -168.613544406926
                         34        0.265439E-05                -168.613544406926
                         35        0.277073E-05                -168.613544406926
                         36        0.335175E-05                -168.613544406926
                         37        0.148809E-05                -168.613544406927
                         38        0.133447E-05                -168.613544406927
                         39        0.918735E-06                -168.613544406927

 Energy components [Hartree]           Total Energy ::         -168.613544406927
                                        Band Energy ::          -26.569761966525
                                     Kinetic Energy ::           97.306723392622
                                   Potential Energy ::         -265.920267799548
                                      Virial (-V/T) ::            2.732804666812
                                        Core Energy ::         -299.567979157577
                                          XC Energy ::          -16.227189041387
                                     Coulomb Energy ::          147.181623792037
                       Total Pseudopotential Energy ::         -396.961043505191
                       Local Pseudopotential Energy ::         -362.648291121960
                    Nonlocal Pseudopotential Energy ::          -34.312752383230
                                        Confinement ::            0.863409549921

 Orbital energies  State     Spin  L     Occupation   Energy[a.u.]    Energy[eV]

                       1    alpha  0          1.000      -4.172666   -113.544030
                       2    alpha  0          1.000      -0.181431     -4.936983
                       1     beta  0          1.000      -4.140640   -112.672541
                       2     beta  0          1.000      -0.176372     -4.799339

                       1    alpha  1          3.000      -2.578739    -70.171064
                       1     beta  1          3.000      -2.547579    -69.323162

                       1    alpha  2          4.350      -0.327039     -8.899191
                       1     beta  2          3.650      -0.300569     -8.178887


 Total Electron Density at R=0:                                         0.030422

 Guess for atomic kind: Ni_b

 Electronic structure
    Total number of core electrons                                         10.00
    Total number of valence electrons                                      18.00
    Total number of electrons                                              28.00
    Multiplicity                                                         doublet
    Alpha Electrons
    S   [  1.00  1.00] 1.00  1.00
    P   [  3.00] 3.00
    D      4.25
    Beta Electrons
    S   [  1.00  1.00] 1.00  1.00
    P   [  3.00] 3.00
    D      3.75


 *******************************************************************************
                  Iteration          Convergence                     Energy [au]
 *******************************************************************************
                          1         1.51687                    -167.065012761055
                          2         14.9817                    -156.620431300845
                          3         2.25575                    -168.317311438693
                          4        0.189210                    -168.607926092750
                          5        0.708658E-01                -168.610773319290
                          6        0.122256E-01                -168.611238205502
                          7        0.598421E-02                -168.611272268995
                          8        0.528277E-02                -168.611272438110
                          9        0.104644E-02                -168.611275321653
                         10        0.260234E-02                -168.611274926630
                         11        0.975322E-03                -168.611275328217
                         12        0.161067E-03                -168.611275447773
                         13        0.147413E-03                -168.611275446839
                         14        0.115114E-03                -168.611275449434
                         15        0.167217E-03                -168.611275445436
                         16        0.255374E-04                -168.611275450531
                         17        0.418369E-04                -168.611275450414
                         18        0.393709E-04                -168.611275450477
                         19        0.239931E-04                -168.611275450542
                         20        0.173885E-04                -168.611275450557
                         21        0.851368E-05                -168.611275450578
                         22        0.849928E-05                -168.611275450580
                         23        0.544937E-05                -168.611275450584
                         24        0.540003E-05                -168.611275450586
                         25        0.613371E-05                -168.611275450584
                         26        0.311593E-06                -168.611275450588

 Energy components [Hartree]           Total Energy ::         -168.611275450588
                                        Band Energy ::          -26.568680144499
                                     Kinetic Energy ::           97.303659243130
                                   Potential Energy ::         -265.914934693718
                                      Virial (-V/T) ::            2.732835915546
                                        Core Energy ::         -299.566189183323
                                          XC Energy ::          -16.224592878785
                                     Coulomb Energy ::          147.179506611520
                       Total Pseudopotential Energy ::         -396.956189041778
                       Local Pseudopotential Energy ::         -362.645043136649
                    Nonlocal Pseudopotential Energy ::          -34.311145905129
                                        Confinement ::            0.863406153250

 Orbital energies  State     Spin  L     Occupation   Energy[a.u.]    Energy[eV]

                       1    alpha  0          1.000      -4.168335   -113.426177
                       2    alpha  0          1.000      -0.180730     -4.917906
                       1     beta  0          1.000      -4.145459   -112.803683
                       2     beta  0          1.000      -0.177117     -4.819606

                       1    alpha  1          3.000      -2.574525    -70.056390
                       1     beta  1          3.000      -2.552268    -69.450746

                       1    alpha  2          4.250      -0.323446     -8.801405
                       1     beta  2          3.750      -0.304537     -8.286881


 Total Electron Density at R=0:                                         0.030429

 Spin 1
 Re-scaling the density matrix to get the right number of electrons for spin 1
                  # Electrons              Trace(P)               Scaling factor
                        297.600             297.600                        1.000

 Spin 2
 Re-scaling the density matrix to get the right number of electrons for spin 2
                  # Electrons              Trace(P)               Scaling factor
                        278.400             278.400                        1.000


 SCF WAVEFUNCTION OPTIMIZATION

  Step     Update method      Time    Convergence         Total energy    Change
  ------------------------------------------------------------------------------
     1 NoMix/Diag. 0.40E-01    1.7     0.87318318     -5426.4441344177 -5.43E+03
     2 Broy./Diag. 0.40E-01    1.5     0.01792727     -5314.8877062848  1.12E+02
[...]
   128 Broy./Diag. 0.40E-01    1.5     0.00292026     -5417.6672661074  5.22E-02
   129 Broy./Diag. 0.40E-01    1.5     0.00985783     -5417.6639516262  3.31E-03
   130 Broy./Diag. 0.40E-01    1.5     0.00089735     -5417.7346727900 -7.07E-02
   131 Broy./Diag. 0.40E-01    1.5     0.00291326     -5417.7594558676 -2.48E-02
   132 Broy./Diag. 0.40E-01    1.5     0.00165523     -5417.8337342393 -7.43E-02
   133 Broy./Diag. 0.40E-01    1.5     0.00184281     -5417.8640967702 -3.04E-02
   134 Broy./Diag. 0.40E-01    1.5     0.00439473     -5417.7955541027  6.85E-02
   135 Broy./Diag. 0.40E-01    1.5     0.00154304     -5417.7868406076  8.71E-03
   136 Broy./Diag. 0.40E-01    1.5     0.00227767     -5417.7286216767  5.82E-02
   137 Broy./Diag. 0.40E-01    1.5     0.00207795     -5417.7855484654 -5.69E-02
   138 Broy./Diag. 0.40E-01    1.5     0.00135190     -5417.8128731204 -2.73E-02
   139 Broy./Diag. 0.40E-01    1.5     0.00212870     -5417.7985909683  1.43E-02
   140 Broy./Diag. 0.40E-01    1.5     0.00873045     -5417.8194917437 -2.09E-02
   141 Broy./Diag. 0.40E-01    1.5     0.00313190     -5417.9691302772 -1.50E-01
   142 Broy./Diag. 0.40E-01    1.5     0.00347104     -5417.9217961938  4.73E-02
   143 Broy./Diag. 0.40E-01    1.5     0.00268667     -5417.8706464244  5.11E-02
   144 Broy./Diag. 0.40E-01    1.5     0.00287461     -5417.7456763641  1.25E-01
   145 Broy./Diag. 0.40E-01    1.5     0.00441724     -5417.8672109230 -1.22E-01
   146 Broy./Diag. 0.40E-01    1.5     0.00486871     -5418.0074333339 -1.40E-01
   147 Broy./Diag. 0.40E-01    1.5     0.01096406     -5417.9554006655  5.20E-02
   148 Broy./Diag. 0.40E-01    1.5     0.00475890     -5417.7966840839  1.59E-01
   149 Broy./Diag. 0.40E-01    1.5     0.00918642     -5417.9682596071 -1.72E-01
   150 Broy./Diag. 0.40E-01    1.5     0.00673387     -5418.2346200227 -2.66E-01
   151 Broy./Diag. 0.40E-01    1.5     0.00616312     -5418.2348127490 -1.93E-04
   152 Broy./Diag. 0.40E-01    1.5     0.00462307     -5418.1011236928  1.34E-01
   153 Broy./Diag. 0.40E-01    1.5     0.00424599     -5418.1563720460 -5.52E-02
   154 Broy./Diag. 0.40E-01    1.5     0.00258663     -5418.1142851559  4.21E-02
   155 Broy./Diag. 0.40E-01    1.5     0.00495317     -5418.0976376100  1.66E-02
   156 Broy./Diag. 0.40E-01    1.5     0.00559578     -5417.9793970677  1.18E-01
   157 Broy./Diag. 0.40E-01    1.5     0.00300168     -5417.6636113606  3.16E-01
   158 Broy./Diag. 0.40E-01    1.5     0.00436204     -5417.6417337227  2.19E-02
   159 Broy./Diag. 0.40E-01    1.5     0.01043537     -5417.5662401173  7.55E-02
   160 Broy./Diag. 0.40E-01    1.5     0.00355335     -5417.7573079969 -1.91E-01
   161 Broy./Diag. 0.40E-01    1.5     0.00797782     -5417.8015900808 -4.43E-02
   162 Broy./Diag. 0.40E-01    1.5     0.01546926     -5417.6066388961  1.95E-01
   163 Broy./Diag. 0.40E-01    1.5     0.00235851     -5417.4405710831  1.66E-01
   164 Broy./Diag. 0.40E-01    1.5     0.01105211     -5417.3620882596  7.85E-02
   165 Broy./Diag. 0.40E-01    1.5     0.00872315     -5417.0074760565  3.55E-01
   166 Broy./Diag. 0.40E-01    1.5     0.00299403     -5417.0893149565 -8.18E-02
   167 Broy./Diag. 0.40E-01    1.5     0.00694420     -5417.3279733731 -2.39E-01
   168 Broy./Diag. 0.40E-01    1.5     0.00340046     -5417.7988129040 -4.71E-01
   169 Broy./Diag. 0.40E-01    1.5     0.00763327     -5417.7177047753  8.11E-02
   170 Broy./Diag. 0.40E-01    1.5     0.00906930     -5417.5560580484  1.62E-01
   171 Broy./Diag. 0.40E-01    1.5     0.01014619     -5417.3880872674  1.68E-01
   172 Broy./Diag. 0.40E-01    1.5     0.00801664     -5417.6140393977 -2.26E-01
   173 Broy./Diag. 0.40E-01    1.5     0.00729516     -5417.4857818170  1.28E-01
   174 Broy./Diag. 0.40E-01    1.5     0.00720505     -5417.7685145538 -2.83E-01
   175 Broy./Diag. 0.40E-01    1.5     0.00702658     -5417.8721240946 -1.04E-01
   176 Broy./Diag. 0.40E-01    1.5     0.00510456     -5418.3010591025 -4.29E-01
   177 Broy./Diag. 0.40E-01    1.5     0.00431917     -5418.5591422271 -2.58E-01
   178 Broy./Diag. 0.40E-01    1.5     0.00372635     -5418.3140918851  2.45E-01
   179 Broy./Diag. 0.40E-01    1.5     0.00506162     -5418.2531039191  6.10E-02
   180 Broy./Diag. 0.40E-01    1.5     0.00645578     -5418.0523465942  2.01E-01
   181 Broy./Diag. 0.40E-01    1.5     0.00162455     -5417.9016714353  1.51E-01
   182 Broy./Diag. 0.40E-01    1.5     0.00480825     -5417.8374982282  6.42E-02
   183 Broy./Diag. 0.40E-01    1.5     0.00292268     -5417.9504819254 -1.13E-01
   184 Broy./Diag. 0.40E-01    1.5     0.00844374     -5417.9074608023  4.30E-02
   185 Broy./Diag. 0.40E-01    1.5     0.00287503     -5417.9278070717 -2.03E-02
   186 Broy./Diag. 0.40E-01    1.5     0.00204927     -5417.9432358369 -1.54E-02
   187 Broy./Diag. 0.40E-01    1.5     0.00579415     -5417.8637480945  7.95E-02
   188 Broy./Diag. 0.40E-01    1.5     0.00244914     -5417.8484305766  1.53E-02
   189 Broy./Diag. 0.40E-01    1.5     0.00397330     -5417.7870374226  6.14E-02
   190 Broy./Diag. 0.40E-01    1.5     0.00597825     -5417.7650000462  2.20E-02
   191 Broy./Diag. 0.40E-01    1.5     0.00635439     -5417.8628235936 -9.78E-02
   192 Broy./Diag. 0.40E-01    1.5     0.00396584     -5417.8147310208  4.81E-02
   193 Broy./Diag. 0.40E-01    1.5     0.00830083     -5417.8009766734  1.38E-02
   194 Broy./Diag. 0.40E-01    1.5     0.00390213     -5417.7953001734  5.68E-03
   195 Broy./Diag. 0.40E-01    1.5     0.00098335     -5417.8125058528 -1.72E-02
   196 Broy./Diag. 0.40E-01    1.5     0.00340974     -5417.8115954907  9.10E-04
   197 Broy./Diag. 0.40E-01    1.5     0.00801803     -5417.8090297611  2.57E-03
   198 Broy./Diag. 0.40E-01    1.5     0.00474506     -5417.8116989248 -2.67E-03
   199 Broy./Diag. 0.40E-01    1.5     0.00058338     -5417.8071898642  4.51E-03
   200 Broy./Diag. 0.40E-01    1.5     0.00426247     -5417.7851695910  2.20E-02
   201 Broy./Diag. 0.40E-01    1.5     0.00111655     -5417.7462565781  3.89E-02
   202 Broy./Diag. 0.40E-01    1.5     0.00215674     -5417.7675469699 -2.13E-02
   203 Broy./Diag. 0.40E-01    1.5     0.00119662     -5417.7947843424 -2.72E-02
   204 Broy./Diag. 0.40E-01    1.5     0.00506471     -5417.7799399527  1.48E-02
   205 Broy./Diag. 0.40E-01    1.5     0.00420864     -5417.7340494537  4.59E-02
   206 Broy./Diag. 0.40E-01    1.5     0.00154266     -5417.7123519975  2.17E-02
   207 Broy./Diag. 0.40E-01    1.5     0.00461470     -5417.7638883445 -5.15E-02
   208 Broy./Diag. 0.40E-01    1.5     0.00327058     -5417.7927719188 -2.89E-02
   209 Broy./Diag. 0.40E-01    1.5     0.00296527     -5417.7820860275  1.07E-02
   210 Broy./Diag. 0.40E-01    1.5     0.00182300     -5417.7347830231  4.73E-02
   211 Broy./Diag. 0.40E-01    1.5     0.00311234     -5417.6761544841  5.86E-02
   212 Broy./Diag. 0.40E-01    1.5     0.00403427     -5417.6251818144  5.10E-02
   213 Broy./Diag. 0.40E-01    1.5     0.00374776     -5417.7813731697 -1.56E-01
   214 Broy./Diag. 0.40E-01    1.5     0.00310174     -5417.7880236659 -6.65E-03
   215 Broy./Diag. 0.40E-01    1.5     0.00822218     -5417.6750532980  1.13E-01
   216 Broy./Diag. 0.40E-01    1.5     0.00146472     -5417.7713935648 -9.63E-02
   217 Broy./Diag. 0.40E-01    1.5     0.00304138     -5417.7448001884  2.66E-02
   218 Broy./Diag. 0.40E-01    1.5     0.00563520     -5417.6977797463  4.70E-02
   219 Broy./Diag. 0.40E-01    1.5     0.00506818     -5417.5763501591  1.21E-01
   220 Broy./Diag. 0.40E-01    1.5     0.00625935     -5417.7271779432 -1.51E-01
   221 Broy./Diag. 0.40E-01    1.5     0.00762401     -5417.7853553877 -5.82E-02
   222 Broy./Diag. 0.40E-01    1.5     0.00248638     -5417.8970520516 -1.12E-01
   223 Broy./Diag. 0.40E-01    1.5     0.00198117     -5417.8477738789  4.93E-02
   224 Broy./Diag. 0.40E-01    1.5     0.00747907     -5417.9602939502 -1.13E-01
   225 Broy./Diag. 0.40E-01    1.5     0.00240096     -5417.8977007713  6.26E-02
   226 Broy./Diag. 0.40E-01    1.5     0.00063424     -5417.8385125288  5.92E-02
   227 Broy./Diag. 0.40E-01    1.5     0.00225136     -5417.7727792706  6.57E-02
   228 Broy./Diag. 0.40E-01    1.5     0.00190645     -5417.7543004682  1.85E-02
   229 Broy./Diag. 0.40E-01    1.5     0.00177836     -5417.7456784774  8.62E-03
   230 Broy./Diag. 0.40E-01    1.5     0.00487571     -5417.7474131279 -1.73E-03
   231 Broy./Diag. 0.40E-01    1.5     0.00758781     -5417.7478153884 -4.02E-04
   232 Broy./Diag. 0.40E-01    1.5     0.00203206     -5417.7531339726 -5.32E-03
   233 Broy./Diag. 0.40E-01    1.5     0.00325921     -5417.7589191517 -5.79E-03
   234 Broy./Diag. 0.40E-01    1.5     0.00613435     -5417.7450140739  1.39E-02
   235 Broy./Diag. 0.40E-01    1.5     0.00121564     -5417.7538889530 -8.87E-03
   236 Broy./Diag. 0.40E-01    1.5     0.00505878     -5417.7659589869 -1.21E-02
   237 Broy./Diag. 0.40E-01    1.5     0.00164708     -5417.7841953114 -1.82E-02
   238 Broy./Diag. 0.40E-01    1.5     0.00479479     -5417.7876020777 -3.41E-03
   239 Broy./Diag. 0.40E-01    1.5     0.00403886     -5417.7711585915  1.64E-02
   240 Broy./Diag. 0.40E-01    1.5     0.00121653     -5417.7829263550 -1.18E-02
   241 Broy./Diag. 0.40E-01    1.5     0.00436776     -5417.7970685487 -1.41E-02
   242 Broy./Diag. 0.40E-01    1.5     0.00781662     -5417.8568742232 -5.98E-02
   243 Broy./Diag. 0.40E-01    1.5     0.00281770     -5417.8251211388  3.18E-02
   244 Broy./Diag. 0.40E-01    1.5     0.00513946     -5417.8170620263  8.06E-03
   245 Broy./Diag. 0.40E-01    1.5     0.00249013     -5417.8324650546 -1.54E-02
   246 Broy./Diag. 0.40E-01    1.5     0.00129577     -5417.8495549951 -1.71E-02
   247 Broy./Diag. 0.40E-01    1.5     0.00319746     -5417.8570305550 -7.48E-03
   248 Broy./Diag. 0.40E-01    1.5     0.00263714     -5417.8471074024  9.92E-03
   249 Broy./Diag. 0.40E-01    1.5     0.00214727     -5417.8378284767  9.28E-03
   250 Broy./Diag. 0.40E-01    1.5     0.00063764     -5417.8006336337  3.72E-02
   251 Broy./Diag. 0.40E-01    1.5     0.00166245     -5417.7945430051  6.09E-03
   252 Broy./Diag. 0.40E-01    1.5     0.00258977     -5417.7969007623 -2.36E-03
   253 Broy./Diag. 0.40E-01    1.5     0.00387635     -5417.8103091886 -1.34E-02
   254 Broy./Diag. 0.40E-01    1.5     0.00172413     -5417.7461203769  6.42E-02
   255 Broy./Diag. 0.40E-01    1.5     0.00272440     -5417.7932471979 -4.71E-02
   256 Broy./Diag. 0.40E-01    1.5     0.00197867     -5417.8196901665 -2.64E-02
   257 Broy./Diag. 0.40E-01    1.5     0.00371537     -5417.8114212507  8.27E-03
   258 Broy./Diag. 0.40E-01    1.5     0.00289144     -5417.7907563965  2.07E-02
   259 Broy./Diag. 0.40E-01    1.5     0.00280050     -5417.7820276742  8.73E-03
   260 Broy./Diag. 0.40E-01    1.5     0.00112078     -5417.8100572953 -2.80E-02
   261 Broy./Diag. 0.40E-01    1.5     0.00360207     -5417.8548321887 -4.48E-02
   262 Broy./Diag. 0.40E-01    1.5     0.00079999     -5417.8651338527 -1.03E-02
   263 Broy./Diag. 0.40E-01    1.5     0.00104069     -5417.8585219094  6.61E-03
   264 Broy./Diag. 0.40E-01    1.5     0.00125983     -5417.8837547546 -2.52E-02
   265 Broy./Diag. 0.40E-01    1.5     0.00066985     -5417.9347105205 -5.10E-02
   266 Broy./Diag. 0.40E-01    1.5     0.00376996     -5417.9467822410 -1.21E-02
   267 Broy./Diag. 0.40E-01    1.5     0.00135581     -5417.8793577929  6.74E-02
   268 Broy./Diag. 0.40E-01    1.5     0.00351047     -5417.8517902488  2.76E-02
   269 Broy./Diag. 0.40E-01    1.5     0.00552806     -5417.8522247778 -4.35E-04
   270 Broy./Diag. 0.40E-01    1.5     0.00078571     -5417.8063297102  4.59E-02
   271 Broy./Diag. 0.40E-01    1.5     0.00170155     -5417.8232073951 -1.69E-02
   272 Broy./Diag. 0.40E-01    1.5     0.00061499     -5417.8663485152 -4.31E-02
   273 Broy./Diag. 0.40E-01    1.5     0.00058032     -5417.8522088924  1.41E-02
   274 Broy./Diag. 0.40E-01    1.5     0.00061090     -5417.8751164892 -2.29E-02
   275 Broy./Diag. 0.40E-01    1.5     0.00219460     -5417.8975540195 -2.24E-02
   276 Broy./Diag. 0.40E-01    1.5     0.00601171     -5417.8835107240  1.40E-02
   277 Broy./Diag. 0.40E-01    1.5     0.00082438     -5417.9128111742 -2.93E-02
   278 Broy./Diag. 0.40E-01    1.5     0.00189603     -5417.9294155469 -1.66E-02
   279 Broy./Diag. 0.40E-01    1.5     0.00275733     -5417.9300383850 -6.23E-04
   280 Broy./Diag. 0.40E-01    1.5     0.00159434     -5417.8791799792  5.09E-02
   281 Broy./Diag. 0.40E-01    1.5     0.00214706     -5417.8880387909 -8.86E-03
   282 Broy./Diag. 0.40E-01    1.5     0.00289467     -5417.8817317647  6.31E-03
   283 Broy./Diag. 0.40E-01    1.5     0.00353712     -5417.9061293088 -2.44E-02
   284 Broy./Diag. 0.40E-01    1.5     0.00047385     -5417.9022566620  3.87E-03
   285 Broy./Diag. 0.40E-01    1.5     0.00180976     -5417.8912065304  1.11E-02
   286 Broy./Diag. 0.40E-01    1.5     0.00325060     -5417.8754849287  1.57E-02
   287 Broy./Diag. 0.40E-01    1.5     0.00163513     -5417.8694595390  6.03E-03
   288 Broy./Diag. 0.40E-01    1.5     0.00074473     -5417.8708026279 -1.34E-03
   289 Broy./Diag. 0.40E-01    1.5     0.00159368     -5417.8781533541 -7.35E-03
   290 Broy./Diag. 0.40E-01    1.5     0.00262204     -5417.8688456553  9.31E-03
   291 Broy./Diag. 0.40E-01    1.5     0.00370886     -5417.8534788597  1.54E-02
   292 Broy./Diag. 0.40E-01    1.5     0.00108416     -5417.8750336749 -2.16E-02
   293 Broy./Diag. 0.40E-01    1.5     0.00258324     -5417.8697507460  5.28E-03
   294 Broy./Diag. 0.40E-01    1.5     0.00160158     -5417.8710678235 -1.32E-03
   295 Broy./Diag. 0.40E-01    1.5     0.00157250     -5417.8489041998  2.22E-02
   296 Broy./Diag. 0.40E-01    1.5     0.00210469     -5417.8282130498  2.07E-02
   297 Broy./Diag. 0.40E-01    1.5     0.00114836     -5417.8148084482  1.34E-02
   298 Broy./Diag. 0.40E-01    1.5     0.00534094     -5417.8187252239 -3.92E-03
   299 Broy./Diag. 0.40E-01    1.5     0.00188810     -5417.8280490656 -9.32E-03
   300 Broy./Diag. 0.40E-01    1.5     0.00835609     -5417.8241006052  3.95E-03
   301 Broy./Diag. 0.40E-01    1.5     0.00022703     -5417.8490293942 -2.49E-02
   302 Broy./Diag. 0.40E-01    1.5     0.00296566     -5417.8550049654 -5.98E-03
   303 Broy./Diag. 0.40E-01    1.5     0.00055661     -5417.8112769310  4.37E-02
   304 Broy./Diag. 0.40E-01    1.5     0.00120523     -5417.8154518605 -4.17E-03
   305 Broy./Diag. 0.40E-01    1.5     0.00504855     -5417.8241376086 -8.69E-03
   306 Broy./Diag. 0.40E-01    1.5     0.00755467     -5417.8103585434  1.38E-02
   307 Broy./Diag. 0.40E-01    1.5     0.00132639     -5417.7855350044  2.48E-02
   308 Broy./Diag. 0.40E-01    1.5     0.00274792     -5417.8011498151 -1.56E-02
   309 Broy./Diag. 0.40E-01    1.5     0.00448711     -5417.7866525612  1.45E-02
   310 Broy./Diag. 0.40E-01    1.5     0.00238177     -5417.7942051742 -7.55E-03
   311 Broy./Diag. 0.40E-01    1.5     0.00166014     -5417.7920864962  2.12E-03
   312 Broy./Diag. 0.40E-01    1.5     0.00113170     -5417.8029600487 -1.09E-02
   313 Broy./Diag. 0.40E-01    1.5     0.00245533     -5417.8120142307 -9.05E-03
   314 Broy./Diag. 0.40E-01    1.5     0.00059082     -5417.7940635396  1.80E-02
   315 Broy./Diag. 0.40E-01    1.5     0.00080957     -5417.7879626966  6.10E-03
   316 Broy./Diag. 0.40E-01    1.5     0.00570458     -5417.7595493521  2.84E-02
   317 Broy./Diag. 0.40E-01    1.5     0.00353537     -5417.7359424626  2.36E-02
   318 Broy./Diag. 0.40E-01    1.5     0.00409570     -5417.7502088512 -1.43E-02
   319 Broy./Diag. 0.40E-01    1.5     0.00319890     -5417.7682656318 -1.81E-02
   320 Broy./Diag. 0.40E-01    1.5     0.00320253     -5417.7700979076 -1.83E-03
   321 Broy./Diag. 0.40E-01    1.5     0.00327937     -5417.7585000567  1.16E-02
   322 Broy./Diag. 0.40E-01    1.5     0.00143534     -5417.7290666801  2.94E-02
   323 Broy./Diag. 0.40E-01    1.5     0.00152093     -5417.7465607908 -1.75E-02
   324 Broy./Diag. 0.40E-01    1.5     0.00231873     -5417.7410697336  5.49E-03
   325 Broy./Diag. 0.40E-01    1.5     0.00617097     -5417.7937916929 -5.27E-02
   326 Broy./Diag. 0.40E-01    1.5     0.00112687     -5417.8102811173 -1.65E-02
   327 Broy./Diag. 0.40E-01    1.5     0.00177600     -5417.8099558060  3.25E-04
   328 Broy./Diag. 0.40E-01    1.5     0.00368424     -5417.8156741323 -5.72E-03
   329 Broy./Diag. 0.40E-01    1.5     0.00257369     -5417.8205600103 -4.89E-03
   330 Broy./Diag. 0.40E-01    1.5     0.00217489     -5417.8320624778 -1.15E-02
   331 Broy./Diag. 0.40E-01    1.5     0.00307090     -5417.8034196696  2.86E-02
   332 Broy./Diag. 0.40E-01    1.5     0.00133761     -5417.8172962986 -1.39E-02
   333 Broy./Diag. 0.40E-01    1.5     0.00899776     -5417.8033659005  1.39E-02
   334 Broy./Diag. 0.40E-01    1.5     0.01089178     -5417.8224446297 -1.91E-02
   335 Broy./Diag. 0.40E-01    1.5     0.00628669     -5417.7768261873  4.56E-02
   336 Broy./Diag. 0.40E-01    1.5     0.00304006     -5417.8470239865 -7.02E-02
   337 Broy./Diag. 0.40E-01    1.5     0.00272468     -5417.8467830244  2.41E-04
   338 Broy./Diag. 0.40E-01    1.5     0.00210815     -5417.8661903438 -1.94E-02
   339 Broy./Diag. 0.40E-01    1.5     0.00562545     -5417.8656565558  5.34E-04
   340 Broy./Diag. 0.40E-01    1.5     0.00292816     -5417.8651671632  4.89E-04
   341 Broy./Diag. 0.40E-01    1.5     0.00348648     -5417.8498664356  1.53E-02
   342 Broy./Diag. 0.40E-01    1.5     0.00204223     -5417.8081997702  4.17E-02
   343 Broy./Diag. 0.40E-01    1.5     0.00365681     -5417.8108384615 -2.64E-03
   344 Broy./Diag. 0.40E-01    1.5     0.00403735     -5417.8156489317 -4.81E-03
   345 Broy./Diag. 0.40E-01    1.5     0.00447306     -5417.8201958020 -4.55E-03
   346 Broy./Diag. 0.40E-01    1.5     0.00584889     -5417.7829743490  3.72E-02
   347 Broy./Diag. 0.40E-01    1.5     0.00122322     -5417.7762493245  6.73E-03
   348 Broy./Diag. 0.40E-01    1.5     0.00232024     -5417.7802553954 -4.01E-03
   349 Broy./Diag. 0.40E-01    1.5     0.00311508     -5417.8102526532 -3.00E-02
   350 Broy./Diag. 0.40E-01    1.5     0.00215815     -5417.8227188114 -1.25E-02
   351 Broy./Diag. 0.40E-01    1.5     0.00274576     -5417.8091946541  1.35E-02
   352 Broy./Diag. 0.40E-01    1.5     0.00194049     -5417.8174847904 -8.29E-03
   353 Broy./Diag. 0.40E-01    1.5     0.00414735     -5417.8449792855 -2.75E-02
   354 Broy./Diag. 0.40E-01    1.5     0.00208305     -5417.9871652019 -1.42E-01
   355 Broy./Diag. 0.40E-01    1.5     0.00498412     -5418.0148886853 -2.77E-02
   356 Broy./Diag. 0.40E-01    1.5     0.00250592     -5417.9759724680  3.89E-02
   357 Broy./Diag. 0.40E-01    1.5     0.00409706     -5418.0249133885 -4.89E-02
   358 Broy./Diag. 0.40E-01    1.5     0.00467882     -5418.0396037293 -1.47E-02
   359 Broy./Diag. 0.40E-01    1.5     0.00214663     -5417.9784041282  6.12E-02
   360 Broy./Diag. 0.40E-01    1.5     0.00267891     -5417.9697548971  8.65E-03
   361 Broy./Diag. 0.40E-01    1.5     0.00206196     -5417.8457553973  1.24E-01
   362 Broy./Diag. 0.40E-01    1.5     0.00089888     -5417.8390639447  6.69E-03
   363 Broy./Diag. 0.40E-01    1.5     0.00056845     -5417.8222846648  1.68E-02
   364 Broy./Diag. 0.40E-01    1.5     0.00536718     -5417.8098069859  1.25E-02
   365 Broy./Diag. 0.40E-01    1.5     0.00350944     -5417.8232371903 -1.34E-02
   366 Broy./Diag. 0.40E-01    1.5     0.00286872     -5417.8166704319  6.57E-03
   367 Broy./Diag. 0.40E-01    1.5     0.00399964     -5417.8611563097 -4.45E-02
   368 Broy./Diag. 0.40E-01    1.5     0.00326456     -5417.8627865441 -1.63E-03
   369 Broy./Diag. 0.40E-01    1.5     0.02220021     -5417.8503991975  1.24E-02
   370 Broy./Diag. 0.40E-01    1.5     0.00346410     -5417.7329163070  1.17E-01
   371 Broy./Diag. 0.40E-01    1.5     0.01082838     -5417.7163311454  1.66E-02
   372 Broy./Diag. 0.40E-01    1.5     0.00098910     -5417.7790955085 -6.28E-02
   373 Broy./Diag. 0.40E-01    1.5     0.00771481     -5417.7567982117  2.23E-02
