 DBCSR| CPU Multiplication driver                                           XSMM (U)
 DBCSR| Multrec recursion limit                                              512 (U)
 DBCSR| Multiplication stack size                                           1000 (D)
 DBCSR| Maximum elements for images                                    UNLIMITED (U)
 DBCSR| Multiplicative factor virtual images                                   1 (U)
 DBCSR| Use multiplication densification                                       T (D)
 DBCSR| Multiplication size stacks                                             3 (U)
 DBCSR| Use memory pool for CPU allocation                                     F (U)
 DBCSR| Number of 3D layers                                               SINGLE (U)
 DBCSR| Use MPI memory allocation                                              F (U)
 DBCSR| Use RMA algorithm                                                      F (U)
 DBCSR| Use Communication thread                                               T (U)
 DBCSR| Communication thread load                                             87 (D)
 DBCSR| MPI: My process id                                                     0
 DBCSR| MPI: Number of processes                                             128
 DBCSR| OMP: Current number of threads                                         1
 DBCSR| OMP: Max number of threads                                             1
 DBCSR| Split modifier for TAS multiplication algorithm                  1.0E+00 (U)


  **** **** ******  **  PROGRAM STARTED AT               2023-02-14 15:48:49.546
 ***** ** ***  *** **   PROGRAM STARTED ON                             nid001651
 **    ****   ******    PROGRAM STARTED BY                                cahart
 ***** **    ** ** **   PROGRAM PROCESS ID                                112797
  **** **  *******  **  PROGRAM STARTED IN /mnt/lustre/a2fs-work2/work/e05/e05/c
                                           ahart/postdoc/masters/ni/archer2/slab
                                           /optimise/alpha-beta/scf_1e-4_mos-100
                                           0_temp-2000_spin-0.7-0.5_periodic-xyz
                                           /search/8.0E-02_8.0E-02

 CP2K| version string:                 CP2K version 2023.1 (Development Version)
 CP2K| source code revision number:                                  git:964cd58
 CP2K| cp2kflags: omp libint fftw3 libxc elpa parallel scalapack xsmm plumed2 mk
 CP2K|            l
 CP2K| is freely available from                            https://www.cp2k.org/
 CP2K| Program compiled at                          Mon 13 Feb 17:05:14 GMT 2023
 CP2K| Program compiled on                                                  ln01
 CP2K| Program compiled for                                              ARCHER2
 CP2K| Data directory path    /work/e05/e05/cahart/cp2k/cp2k-2023.1/cp2k-2023.1-
 CP2K| Input file name                                                  cp2k.inp

 GLOBAL| Force Environment number                                              1
 GLOBAL| Basis set file name                                        BASIS_MOLOPT
 GLOBAL| Potential file name                                      GTH_POTENTIALS
 GLOBAL| MM Potential file name                                     MM_POTENTIAL
 GLOBAL| Coordinate file name                                      __STD_INPUT__
 GLOBAL| Method name                                                        CP2K
 GLOBAL| Project name                                                    Ni_bulk
 GLOBAL| Run type                                                         ENERGY
 GLOBAL| FFT library                                                       FFTW3
 GLOBAL| Diagonalization library                                            ELPA
 GLOBAL| DGEMM library                                                      BLAS
 GLOBAL| Minimum number of eigenvectors for ELPA usage                        16
 GLOBAL| Orthonormality check for eigenvectors                          DISABLED
 GLOBAL| Matrix multiplication library                                 ScaLAPACK
 GLOBAL| All-to-all communication in single precision                          F
 GLOBAL| FFTs using library dependent lengths                                  F
 GLOBAL| Grid backend                                                       AUTO
 GLOBAL| Global print level                                               MEDIUM
 GLOBAL| MPI I/O enabled                                                       T
 GLOBAL| Total number of message passing processes                           128
 GLOBAL| Number of threads for this process                                    1
 GLOBAL| This output is from process                                           0
 GLOBAL| Stack size for threads created by OpenMP (OMP_STACKSIZE)        default
 GLOBAL| CPU model name                          AMD EPYC 7742 64-Core Processor
 GLOBAL| CPUID                                                              1002

 MEMORY| system memory details [Kb]
 MEMORY|                        rank 0           min           max       average
 MEMORY| MemTotal            263528068     263528068     263528068     263528068
 MEMORY| MemFree             239280644     239280644     239280644     239280644
 MEMORY| Buffers                 29364         29364         29364         29364
 MEMORY| Cached                 598648        598648        598648        598648
 MEMORY| Slab                  1529856       1529856       1529856       1529856
 MEMORY| SReclaimable           102896        102896        102896        102896
 MEMORY| MemLikelyFree       240011552     240011552     240011552     240011552


 *** Fundamental physical constants (SI units) ***

 *** Literature: B. J. Mohr and B. N. Taylor,
 ***             CODATA recommended values of the fundamental physical
 ***             constants: 2006, Web Version 5.1
 ***             http://physics.nist.gov/constants

 Speed of light in vacuum [m/s]                             2.99792458000000E+08
 Magnetic constant or permeability of vacuum [N/A**2]       1.25663706143592E-06
 Electric constant or permittivity of vacuum [F/m]          8.85418781762039E-12
 Planck constant (h) [J*s]                                  6.62606896000000E-34
 Planck constant (h-bar) [J*s]                              1.05457162825177E-34
 Elementary charge [C]                                      1.60217648700000E-19
 Electron mass [kg]                                         9.10938215000000E-31
 Electron g factor [ ]                                     -2.00231930436220E+00
 Proton mass [kg]                                           1.67262163700000E-27
 Fine-structure constant                                    7.29735253760000E-03
 Rydberg constant [1/m]                                     1.09737315685270E+07
 Avogadro constant [1/mol]                                  6.02214179000000E+23
 Boltzmann constant [J/K]                                   1.38065040000000E-23
 Atomic mass unit [kg]                                      1.66053878200000E-27
 Bohr radius [m]                                            5.29177208590000E-11

 *** Conversion factors ***

 [u] -> [a.u.]                                              1.82288848426455E+03
 [Angstrom] -> [Bohr] = [a.u.]                              1.88972613288564E+00
 [a.u.] = [Bohr] -> [Angstrom]                              5.29177208590000E-01
 [a.u.] -> [s]                                              2.41888432650478E-17
 [a.u.] -> [fs]                                             2.41888432650478E-02
 [a.u.] -> [J]                                              4.35974393937059E-18
 [a.u.] -> [N]                                              8.23872205491840E-08
 [a.u.] -> [K]                                              3.15774647902944E+05
 [a.u.] -> [kJ/mol]                                         2.62549961709828E+03
 [a.u.] -> [kcal/mol]                                       6.27509468713739E+02
 [a.u.] -> [Pa]                                             2.94210107994716E+13
 [a.u.] -> [bar]                                            2.94210107994716E+08
 [a.u.] -> [atm]                                            2.90362800883016E+08
 [a.u.] -> [eV]                                             2.72113838565563E+01
 [a.u.] -> [Hz]                                             6.57968392072181E+15
 [a.u.] -> [1/cm] (wave numbers)                            2.19474631370540E+05
 [a.u./Bohr**2] -> [1/cm]                                   5.14048714338585E+03
 

 CELL_TOP| Volume [angstrom^3]:                                       983.249569
 CELL_TOP| Vector a [angstrom     7.012     0.000     0.000   |a| =     7.011596
 CELL_TOP| Vector b [angstrom     0.000     7.012     0.000   |b| =     7.011596
 CELL_TOP| Vector c [angstrom     0.000     0.000    20.000   |c| =    20.000000
 CELL_TOP| Angle (b,c), alpha [degree]:                                90.000000
 CELL_TOP| Angle (a,c), beta  [degree]:                                90.000000
 CELL_TOP| Angle (a,b), gamma [degree]:                                90.000000
 CELL_TOP| Numerically orthorhombic:                                         YES
 CELL_TOP| Periodicity                                                       XYZ

 GENERATE|  Preliminary Number of Bonds generated:                             0
 GENERATE|  Achieved consistency in connectivity generation.

 CELL| Volume [angstrom^3]:                                           983.249569
 CELL| Vector a [angstrom]:       7.012     0.000     0.000   |a| =     7.011596
 CELL| Vector b [angstrom]:       0.000     7.012     0.000   |b| =     7.011596
 CELL| Vector c [angstrom]:       0.000     0.000    20.000   |c| =    20.000000
 CELL| Angle (b,c), alpha [degree]:                                    90.000000
 CELL| Angle (a,c), beta  [degree]:                                    90.000000
 CELL| Angle (a,b), gamma [degree]:                                    90.000000
 CELL| Numerically orthorhombic:                                             YES
 CELL| Periodicity                                                           XYZ

 CELL_REF| Volume [angstrom^3]:                                       983.249569
 CELL_REF| Vector a [angstrom     7.012     0.000     0.000   |a| =     7.011596
 CELL_REF| Vector b [angstrom     0.000     7.012     0.000   |b| =     7.011596
 CELL_REF| Vector c [angstrom     0.000     0.000    20.000   |c| =    20.000000
 CELL_REF| Angle (b,c), alpha [degree]:                                90.000000
 CELL_REF| Angle (a,c), beta  [degree]:                                90.000000
 CELL_REF| Angle (a,b), gamma [degree]:                                90.000000
 CELL_REF| Numerically orthorhombic:                                         YES
 CELL_REF| Periodicity                                                       XYZ

 *** WARNING in cryssym.F:165 :: Symmetry library SPGLIB not available ***


 *******************************************************************************
                                    Kpoints
 *******************************************************************************
 BRILLOUIN| K-point scheme                                        Monkhorst-Pack
 BRILLOUIN| K-Point grid                                             4    4    1
 BRILLOUIN| Accuracy in Symmetry determination                      0.100000E-05
 BRILLOUIN| K-Point point group symmetrization                               OFF
 BRILLOUIN| Wavefunction type                                            COMPLEX
 BRILLOUIN| List of Kpoints [2 Pi/Bohr]                                        8
 BRILLOUIN| Number           Weight            X              Y              Z
 BRILLOUIN|     1           0.12500       -0.37500       -0.37500        0.00000
 BRILLOUIN|     2           0.12500       -0.37500       -0.12500        0.00000
 BRILLOUIN|     3           0.12500       -0.37500        0.12500        0.00000
 BRILLOUIN|     4           0.12500       -0.37500        0.37500        0.00000
 BRILLOUIN|     5           0.12500       -0.12500       -0.37500        0.00000
 BRILLOUIN|     6           0.12500       -0.12500       -0.12500        0.00000
 BRILLOUIN|     7           0.12500       -0.12500        0.12500        0.00000
 BRILLOUIN|     8           0.12500       -0.12500        0.37500        0.00000
 *******************************************************************************

 *******************************************************************************
 *******************************************************************************
 **                                                                           **
 **     #####                         ##              ##                      **
 **    ##   ##            ##          ##              ##                      **
 **   ##     ##                       ##            ######                    **
 **   ##     ##  ##   ##  ##   #####  ##  ##   ####   ##    #####    #####    **
 **   ##     ##  ##   ##  ##  ##      ## ##   ##      ##   ##   ##  ##   ##   **
 **   ##  ## ##  ##   ##  ##  ##      ####     ###    ##   ######   ######    **
 **    ##  ###   ##   ##  ##  ##      ## ##      ##   ##   ##       ##        **
 **     #######   #####   ##   #####  ##  ##  ####    ##    #####   ##        **
 **           ##                                                    ##        **
 **                                                                           **
 **                                                ... make the atoms dance   **
 **                                                                           **
 **            Copyright (C) by CP2K developers group (2000-2023)             **
 **                      J. Chem. Phys. 152, 194103 (2020)                    **
 **                                                                           **
 *******************************************************************************

 *** WARNING in qs_environment.F:1456 :: Number of electrons will be ***
 *** overwritten by NELEC_ALPHA and NELEC_BETA, multiplicity will be ***
 *** ignored.                                                        ***

 Number of electrons should be                                               576
 Sum of NELEC_ALPHA and NELEC_BETA is                                    576.000

 *** WARNING in qs_environment.F:1488 :: NELEC_ALPHA is not an integer, ***
 *** many features will not be supported.                               ***


 *** WARNING in qs_environment.F:1500 :: NELEC_BETA is not an integer, ***
 *** many features will not be supported.                              ***


 *** WARNING in qs_environment.F:1532 :: More ADDED_MOs requested for beta ***
 *** spin than available.                                                  ***


 *** WARNING in qs_environment.F:1548 :: More added MOs requested than     ***
 *** available. The full set of unoccupied MOs will be used. Use           ***
 *** 'ADDED_MOS -1' to always use all available MOs and to get rid of this ***
 *** warning.                                                              ***


 DFT| Spin unrestricted (spin-polarized) Kohn-Sham calculation               UKS
 DFT| Multiplicity                                                             1
 DFT| Number of spin states                                                    2
 DFT| Charge                                                                   0
 DFT| Self-interaction correction (SIC)                                       NO
 DFT| Cutoffs: density                                              1.000000E-10
 DFT|          gradient                                             1.000000E-10
 DFT|          tau                                                  1.000000E-10
 DFT|          cutoff_smoothing_range                               0.000000E+00
 DFT| XC density smoothing                                                  NONE
 DFT| XC derivatives                                                          PW

 FUNCTIONAL| PBE:
 FUNCTIONAL| J.P.Perdew, K.Burke, M.Ernzerhof, Phys. Rev. Letter, vol. 77, n 18,
 FUNCTIONAL|  pp. 3865-3868, (1996){spin polarized}                             

 vdW POTENTIAL|                                                   Pair Potential
 vdW POTENTIAL|          DFT-D3 (Version 3.1)
 vdW POTENTIAL|          Potential Form: S. Grimme et al, JCP 132: 154104 (2010)
 vdW POTENTIAL|          Zero Damping
 vdW POTENTIAL|          Cutoff Radius [Bohr]:                             20.00
 vdW POTENTIAL|          s6 Scaling Factor:                               1.0000
 vdW POTENTIAL|          sr6 Scaling Factor:                              1.2170
 vdW POTENTIAL|          s8 Scaling Factor:                               0.7220
 vdW POTENTIAL|          Cutoff for CN calculation:                   0.1000E-05

 QS| Method:                                                                 GPW
 QS| Density plane wave grid type                        NON-SPHERICAL FULLSPACE
 QS| Number of grid levels:                                                    5
 QS| Density cutoff [a.u.]:                                                300.0
 QS| Multi grid cutoff [a.u.]: 1) grid level                               300.0
 QS|                           2) grid level                               100.0
 QS|                           3) grid level                                33.3
 QS|                           4) grid level                                11.1
 QS|                           5) grid level                                 3.7
 QS| Grid level progression factor:                                          3.0
 QS| Relative density cutoff [a.u.]:                                        30.0
 QS| Interaction thresholds: eps_pgf_orb:                                1.0E-06
 QS|                         eps_filter_matrix:                          0.0E+00
 QS|                         eps_core_charge:                            1.0E-14
 QS|                         eps_rho_gspace:                             1.0E-12
 QS|                         eps_rho_rspace:                             1.0E-12
 QS|                         eps_gvg_rspace:                             1.0E-06
 QS|                         eps_ppl:                                    1.0E-02
 QS|                         eps_ppnl:                                   1.0E-08


 ATOMIC KIND INFORMATION

  1. Atomic kind: Ni_i                                  Number of atoms:      16

     Orbital Basis Set                                        DZVP-MOLOPT-SR-GTH

       Number of orbital shell sets:                                           1
       Number of orbital shells:                                               8
       Number of primitive Cartesian functions:                                6
       Number of Cartesian basis functions:                                   31
       Number of spherical basis functions:                                   26
       Norm type:                                                              2

       Normalised Cartesian orbitals:

                        Set   Shell   Orbital            Exponent    Coefficient

                          1       1    2s               10.077428      -0.684558
                                                         5.847736      -0.844524
                                                         2.494033       1.088856
                                                         0.988355       0.395503
                                                         0.344978       0.010224
                                                         0.099466      -0.003250

                          1       2    3s               10.077428       0.096747
                                                         5.847736       0.162504
                                                         2.494033      -0.297192
                                                         0.988355      -0.319752
                                                         0.344978       0.088318
                                                         0.099466       0.118587

                          1       3    4s               10.077428       0.036437
                                                         5.847736      -0.381480
                                                         2.494033       0.003759
                                                         0.988355      -1.048256
                                                         0.344978       0.855825
                                                         0.099466      -0.176350

                          1       4    3px              10.077428      -3.133913
                                                         5.847736       3.027656
                                                         2.494033       2.353227
                                                         0.988355       0.554184
                                                         0.344978       0.019462
                                                         0.099466      -0.000291
                          1       4    3py              10.077428      -3.133913
                                                         5.847736       3.027656
                                                         2.494033       2.353227
                                                         0.988355       0.554184
                                                         0.344978       0.019462
                                                         0.099466      -0.000291
                          1       4    3pz              10.077428      -3.133913
                                                         5.847736       3.027656
                                                         2.494033       2.353227
                                                         0.988355       0.554184
                                                         0.344978       0.019462
                                                         0.099466      -0.000291

                          1       5    4px              10.077428      -0.112729
                                                         5.847736      -0.114008
                                                         2.494033      -0.347303
                                                         0.988355      -0.110323
                                                         0.344978       0.154096
                                                         0.099466       0.058386
                          1       5    4py              10.077428      -0.112729
                                                         5.847736      -0.114008
                                                         2.494033      -0.347303
                                                         0.988355      -0.110323
                                                         0.344978       0.154096
                                                         0.099466       0.058386
                          1       5    4pz              10.077428      -0.112729
                                                         5.847736      -0.114008
                                                         2.494033      -0.347303
                                                         0.988355      -0.110323
                                                         0.344978       0.154096
                                                         0.099466       0.058386

                          1       6    4dx2             10.077428       8.232726
                                                         5.847736       9.105758
                                                         2.494033       2.849835
                                                         0.988355       0.554319
                                                         0.344978       0.067245
                                                         0.099466       0.001940
                          1       6    4dxy             10.077428      14.259500
                                                         5.847736      15.771636
                                                         2.494033       4.936060
                                                         0.988355       0.960109
                                                         0.344978       0.116472
                                                         0.099466       0.003360
                          1       6    4dxz             10.077428      14.259500
                                                         5.847736      15.771636
                                                         2.494033       4.936060
                                                         0.988355       0.960109
                                                         0.344978       0.116472
                                                         0.099466       0.003360
                          1       6    4dy2             10.077428       8.232726
                                                         5.847736       9.105758
                                                         2.494033       2.849835
                                                         0.988355       0.554319
                                                         0.344978       0.067245
                                                         0.099466       0.001940
                          1       6    4dyz             10.077428      14.259500
                                                         5.847736      15.771636
                                                         2.494033       4.936060
                                                         0.988355       0.960109
                                                         0.344978       0.116472
                                                         0.099466       0.003360
                          1       6    4dz2             10.077428       8.232726
                                                         5.847736       9.105758
                                                         2.494033       2.849835
                                                         0.988355       0.554319
                                                         0.344978       0.067245
                                                         0.099466       0.001940

                          1       7    5dx2             10.077428      -2.715373
                                                         5.847736      -4.020640
                                                         2.494033      -1.397569
                                                         0.988355      -0.076143
                                                         0.344978       0.033435
                                                         0.099466       0.026032
                          1       7    5dxy             10.077428      -4.703164
                                                         5.847736      -6.963952
                                                         2.494033      -2.420661
                                                         0.988355      -0.131883
                                                         0.344978       0.057911
                                                         0.099466       0.045088
                          1       7    5dxz             10.077428      -4.703164
                                                         5.847736      -6.963952
                                                         2.494033      -2.420661
                                                         0.988355      -0.131883
                                                         0.344978       0.057911
                                                         0.099466       0.045088
                          1       7    5dy2             10.077428      -2.715373
                                                         5.847736      -4.020640
                                                         2.494033      -1.397569
                                                         0.988355      -0.076143
                                                         0.344978       0.033435
                                                         0.099466       0.026032
                          1       7    5dyz             10.077428      -4.703164
                                                         5.847736      -6.963952
                                                         2.494033      -2.420661
                                                         0.988355      -0.131883
                                                         0.344978       0.057911
                                                         0.099466       0.045088
                          1       7    5dz2             10.077428      -2.715373
                                                         5.847736      -4.020640
                                                         2.494033      -1.397569
                                                         0.988355      -0.076143
                                                         0.344978       0.033435
                                                         0.099466       0.026032

                          1       8    5fx3             10.077428      -0.467694
                                                         5.847736       0.618100
                                                         2.494033       0.066069
                                                         0.988355       0.262898
                                                         0.344978       0.004720
                                                         0.099466       0.007748
                          1       8    5fx2y            10.077428      -1.045795
                                                         5.847736       1.382114
                                                         2.494033       0.147734
                                                         0.988355       0.587859
                                                         0.344978       0.010555
                                                         0.099466       0.017325
                          1       8    5fx2z            10.077428      -1.045795
                                                         5.847736       1.382114
                                                         2.494033       0.147734
                                                         0.988355       0.587859
                                                         0.344978       0.010555
                                                         0.099466       0.017325
                          1       8    5fxy2            10.077428      -1.045795
                                                         5.847736       1.382114
                                                         2.494033       0.147734
                                                         0.988355       0.587859
                                                         0.344978       0.010555
                                                         0.099466       0.017325
                          1       8    5fxyz            10.077428      -1.811371
                                                         5.847736       2.393892
                                                         2.494033       0.255883
                                                         0.988355       1.018201
                                                         0.344978       0.018282
                                                         0.099466       0.030008
                          1       8    5fxz2            10.077428      -1.045795
                                                         5.847736       1.382114
                                                         2.494033       0.147734
                                                         0.988355       0.587859
                                                         0.344978       0.010555
                                                         0.099466       0.017325
                          1       8    5fy3             10.077428      -0.467694
                                                         5.847736       0.618100
                                                         2.494033       0.066069
                                                         0.988355       0.262898
                                                         0.344978       0.004720
                                                         0.099466       0.007748
                          1       8    5fy2z            10.077428      -1.045795
                                                         5.847736       1.382114
                                                         2.494033       0.147734
                                                         0.988355       0.587859
                                                         0.344978       0.010555
                                                         0.099466       0.017325
                          1       8    5fyz2            10.077428      -1.045795
                                                         5.847736       1.382114
                                                         2.494033       0.147734
                                                         0.988355       0.587859
                                                         0.344978       0.010555
                                                         0.099466       0.017325
                          1       8    5fz3             10.077428      -0.467694
                                                         5.847736       0.618100
                                                         2.494033       0.066069
                                                         0.988355       0.262898
                                                         0.344978       0.004720
                                                         0.099466       0.007748

       Atomic covalent radius [Angstrom]:                                  1.150

       Atomic van der Waals radius [Angstrom]:                             1.630

     GTH Potential information for                                   GTH-PBE-q18

       Description:                       Goedecker-Teter-Hutter pseudopotential
                                           Goedecker et al., PRB 54, 1703 (1996)
                                          Hartwigsen et al., PRB 58, 3641 (1998)
                                                      Krack, TCA 114, 145 (2005)

       Gaussian exponent of the core charge distribution:               4.081633
       Electronic configuration (s p d ...):                           4   6   8

       Parameters of the local part of the GTH pseudopotential:

                          rloc        C1          C2          C3          C4
                        0.350000    2.102166    0.648484

       Parameters of the non-local part of the GTH pseudopotential:

                   l      r(l)      h(i,j,l)

                   0    0.261295    0.622658    9.970227
                                    9.970227  -12.871507
                   1    0.224253  -11.142708   12.429566
                                   12.429566  -14.706861
                   2    0.215348  -12.628146

  2. Atomic kind: Ni_b                                  Number of atoms:      16

     Orbital Basis Set                                        DZVP-MOLOPT-SR-GTH

       Number of orbital shell sets:                                           1
       Number of orbital shells:                                               8
       Number of primitive Cartesian functions:                                6
       Number of Cartesian basis functions:                                   31
       Number of spherical basis functions:                                   26
       Norm type:                                                              2

       Normalised Cartesian orbitals:

                        Set   Shell   Orbital            Exponent    Coefficient

                          1       1    2s               10.077428      -0.684558
                                                         5.847736      -0.844524
                                                         2.494033       1.088856
                                                         0.988355       0.395503
                                                         0.344978       0.010224
                                                         0.099466      -0.003250

                          1       2    3s               10.077428       0.096747
                                                         5.847736       0.162504
                                                         2.494033      -0.297192
                                                         0.988355      -0.319752
                                                         0.344978       0.088318
                                                         0.099466       0.118587

                          1       3    4s               10.077428       0.036437
                                                         5.847736      -0.381480
                                                         2.494033       0.003759
                                                         0.988355      -1.048256
                                                         0.344978       0.855825
                                                         0.099466      -0.176350

                          1       4    3px              10.077428      -3.133913
                                                         5.847736       3.027656
                                                         2.494033       2.353227
                                                         0.988355       0.554184
                                                         0.344978       0.019462
                                                         0.099466      -0.000291
                          1       4    3py              10.077428      -3.133913
                                                         5.847736       3.027656
                                                         2.494033       2.353227
                                                         0.988355       0.554184
                                                         0.344978       0.019462
                                                         0.099466      -0.000291
                          1       4    3pz              10.077428      -3.133913
                                                         5.847736       3.027656
                                                         2.494033       2.353227
                                                         0.988355       0.554184
                                                         0.344978       0.019462
                                                         0.099466      -0.000291

                          1       5    4px              10.077428      -0.112729
                                                         5.847736      -0.114008
                                                         2.494033      -0.347303
                                                         0.988355      -0.110323
                                                         0.344978       0.154096
                                                         0.099466       0.058386
                          1       5    4py              10.077428      -0.112729
                                                         5.847736      -0.114008
                                                         2.494033      -0.347303
                                                         0.988355      -0.110323
                                                         0.344978       0.154096
                                                         0.099466       0.058386
                          1       5    4pz              10.077428      -0.112729
                                                         5.847736      -0.114008
                                                         2.494033      -0.347303
                                                         0.988355      -0.110323
                                                         0.344978       0.154096
                                                         0.099466       0.058386

                          1       6    4dx2             10.077428       8.232726
                                                         5.847736       9.105758
                                                         2.494033       2.849835
                                                         0.988355       0.554319
                                                         0.344978       0.067245
                                                         0.099466       0.001940
                          1       6    4dxy             10.077428      14.259500
                                                         5.847736      15.771636
                                                         2.494033       4.936060
                                                         0.988355       0.960109
                                                         0.344978       0.116472
                                                         0.099466       0.003360
                          1       6    4dxz             10.077428      14.259500
                                                         5.847736      15.771636
                                                         2.494033       4.936060
                                                         0.988355       0.960109
                                                         0.344978       0.116472
                                                         0.099466       0.003360
                          1       6    4dy2             10.077428       8.232726
                                                         5.847736       9.105758
                                                         2.494033       2.849835
                                                         0.988355       0.554319
                                                         0.344978       0.067245
                                                         0.099466       0.001940
                          1       6    4dyz             10.077428      14.259500
                                                         5.847736      15.771636
                                                         2.494033       4.936060
                                                         0.988355       0.960109
                                                         0.344978       0.116472
                                                         0.099466       0.003360
                          1       6    4dz2             10.077428       8.232726
                                                         5.847736       9.105758
                                                         2.494033       2.849835
                                                         0.988355       0.554319
                                                         0.344978       0.067245
                                                         0.099466       0.001940

                          1       7    5dx2             10.077428      -2.715373
                                                         5.847736      -4.020640
                                                         2.494033      -1.397569
                                                         0.988355      -0.076143
                                                         0.344978       0.033435
                                                         0.099466       0.026032
                          1       7    5dxy             10.077428      -4.703164
                                                         5.847736      -6.963952
                                                         2.494033      -2.420661
                                                         0.988355      -0.131883
                                                         0.344978       0.057911
                                                         0.099466       0.045088
                          1       7    5dxz             10.077428      -4.703164
                                                         5.847736      -6.963952
                                                         2.494033      -2.420661
                                                         0.988355      -0.131883
                                                         0.344978       0.057911
                                                         0.099466       0.045088
                          1       7    5dy2             10.077428      -2.715373
                                                         5.847736      -4.020640
                                                         2.494033      -1.397569
                                                         0.988355      -0.076143
                                                         0.344978       0.033435
                                                         0.099466       0.026032
                          1       7    5dyz             10.077428      -4.703164
                                                         5.847736      -6.963952
                                                         2.494033      -2.420661
                                                         0.988355      -0.131883
                                                         0.344978       0.057911
                                                         0.099466       0.045088
                          1       7    5dz2             10.077428      -2.715373
                                                         5.847736      -4.020640
                                                         2.494033      -1.397569
                                                         0.988355      -0.076143
                                                         0.344978       0.033435
                                                         0.099466       0.026032

                          1       8    5fx3             10.077428      -0.467694
                                                         5.847736       0.618100
                                                         2.494033       0.066069
                                                         0.988355       0.262898
                                                         0.344978       0.004720
                                                         0.099466       0.007748
                          1       8    5fx2y            10.077428      -1.045795
                                                         5.847736       1.382114
                                                         2.494033       0.147734
                                                         0.988355       0.587859
                                                         0.344978       0.010555
                                                         0.099466       0.017325
                          1       8    5fx2z            10.077428      -1.045795
                                                         5.847736       1.382114
                                                         2.494033       0.147734
                                                         0.988355       0.587859
                                                         0.344978       0.010555
                                                         0.099466       0.017325
                          1       8    5fxy2            10.077428      -1.045795
                                                         5.847736       1.382114
                                                         2.494033       0.147734
                                                         0.988355       0.587859
                                                         0.344978       0.010555
                                                         0.099466       0.017325
                          1       8    5fxyz            10.077428      -1.811371
                                                         5.847736       2.393892
                                                         2.494033       0.255883
                                                         0.988355       1.018201
                                                         0.344978       0.018282
                                                         0.099466       0.030008
                          1       8    5fxz2            10.077428      -1.045795
                                                         5.847736       1.382114
                                                         2.494033       0.147734
                                                         0.988355       0.587859
                                                         0.344978       0.010555
                                                         0.099466       0.017325
                          1       8    5fy3             10.077428      -0.467694
                                                         5.847736       0.618100
                                                         2.494033       0.066069
                                                         0.988355       0.262898
                                                         0.344978       0.004720
                                                         0.099466       0.007748
                          1       8    5fy2z            10.077428      -1.045795
                                                         5.847736       1.382114
                                                         2.494033       0.147734
                                                         0.988355       0.587859
                                                         0.344978       0.010555
                                                         0.099466       0.017325
                          1       8    5fyz2            10.077428      -1.045795
                                                         5.847736       1.382114
                                                         2.494033       0.147734
                                                         0.988355       0.587859
                                                         0.344978       0.010555
                                                         0.099466       0.017325
                          1       8    5fz3             10.077428      -0.467694
                                                         5.847736       0.618100
                                                         2.494033       0.066069
                                                         0.988355       0.262898
                                                         0.344978       0.004720
                                                         0.099466       0.007748

       Atomic covalent radius [Angstrom]:                                  1.150

       Atomic van der Waals radius [Angstrom]:                             1.630

     GTH Potential information for                                   GTH-PBE-q18

       Description:                       Goedecker-Teter-Hutter pseudopotential
                                           Goedecker et al., PRB 54, 1703 (1996)
                                          Hartwigsen et al., PRB 58, 3641 (1998)
                                                      Krack, TCA 114, 145 (2005)

       Gaussian exponent of the core charge distribution:               4.081633
       Electronic configuration (s p d ...):                           4   6   8

       Parameters of the local part of the GTH pseudopotential:

                          rloc        C1          C2          C3          C4
                        0.350000    2.102166    0.648484

       Parameters of the non-local part of the GTH pseudopotential:

                   l      r(l)      h(i,j,l)

                   0    0.261295    0.622658    9.970227
                                    9.970227  -12.871507
                   1    0.224253  -11.142708   12.429566
                                   12.429566  -14.706861
                   2    0.215348  -12.628146


 MOLECULE KIND INFORMATION


 All atoms are their own molecule, skipping detailed information


 TOTAL NUMBERS AND MAXIMUM NUMBERS

  Total number of            - Atomic kinds:                                   2
                             - Atoms:                                         32
                             - Shell sets:                                    32
                             - Shells:                                       256
                             - Primitive Cartesian functions:                192
                             - Cartesian basis functions:                    992
                             - Spherical basis functions:                    832

  Maximum angular momentum of- Orbital basis functions:                        3
                             - Local part of the GTH pseudopotential:          2
                             - Non-local part of the GTH pseudopotential:      3


 MODULE QUICKSTEP: ATOMIC COORDINATES IN ANGSTROM

   Atom Kind Element         X             Y             Z       Z(eff)     Mass
      1    1 Ni   28      0.876298      0.876298      7.370500  18.0000  58.6934
      2    1 Ni   28      0.876298      4.382298      7.370500  18.0000  58.6934
      3    1 Ni   28      2.629298      2.629298      7.370500  18.0000  58.6934
      4    1 Ni   28      2.629298      6.135298      7.370500  18.0000  58.6934
      5    1 Ni   28      4.382298      0.876298      7.370500  18.0000  58.6934
      6    1 Ni   28      4.382298      4.382298      7.370500  18.0000  58.6934
      7    1 Ni   28      6.135298      2.629298      7.370500  18.0000  58.6934
      8    1 Ni   28      6.135298      6.135298      7.370500  18.0000  58.6934
      9    2 Ni   28      0.876298      2.629298      9.123500  18.0000  58.6934
     10    2 Ni   28      0.876298      6.135298      9.123500  18.0000  58.6934
     11    2 Ni   28      2.629298      0.876298      9.123500  18.0000  58.6934
     12    2 Ni   28      2.629298      4.382298      9.123500  18.0000  58.6934
     13    2 Ni   28      4.382298      2.629298      9.123500  18.0000  58.6934
     14    2 Ni   28      4.382298      6.135298      9.123500  18.0000  58.6934
     15    2 Ni   28      6.135298      0.876298      9.123500  18.0000  58.6934
     16    2 Ni   28      6.135298      4.382298      9.123500  18.0000  58.6934
     17    2 Ni   28      0.876298      0.876298     10.876500  18.0000  58.6934
     18    2 Ni   28      0.876298      4.382298     10.876500  18.0000  58.6934
     19    2 Ni   28      2.629298      2.629298     10.876500  18.0000  58.6934
     20    2 Ni   28      2.629298      6.135298     10.876500  18.0000  58.6934
     21    2 Ni   28      4.382298      0.876298     10.876500  18.0000  58.6934
     22    2 Ni   28      4.382298      4.382298     10.876500  18.0000  58.6934
     23    2 Ni   28      6.135298      2.629298     10.876500  18.0000  58.6934
     24    2 Ni   28      6.135298      6.135298     10.876500  18.0000  58.6934
     25    1 Ni   28      0.876298      2.629298     12.629500  18.0000  58.6934
     26    1 Ni   28      0.876298      6.135298     12.629500  18.0000  58.6934
     27    1 Ni   28      2.629298      0.876298     12.629500  18.0000  58.6934
     28    1 Ni   28      2.629298      4.382298     12.629500  18.0000  58.6934
     29    1 Ni   28      4.382298      2.629298     12.629500  18.0000  58.6934
     30    1 Ni   28      4.382298      6.135298     12.629500  18.0000  58.6934
     31    1 Ni   28      6.135298      0.876298     12.629500  18.0000  58.6934
     32    1 Ni   28      6.135298      4.382298     12.629500  18.0000  58.6934



 SCF PARAMETERS         Density guess:                                    ATOMIC
                        --------------------------------------------------------
                        max_scf:                                             500
                        max_scf_history:                                       0
                        max_diis:                                              4
                        --------------------------------------------------------
                        eps_scf:                                        1.00E-04
                        eps_scf_history:                                0.00E+00
                        eps_diis:                                       1.00E-01
                        eps_eigval:                                     1.00E-05
                        --------------------------------------------------------
                        level_shift [a.u.]:                             0.000000
                        added MOs                                       534  553
                        --------------------------------------------------------
                        Mixing method:                            BROYDEN_MIXING
                                                charge density mixing in g-space
                        --------------------------------------------------------
                        Smear method:                                FERMI_DIRAC
                        Electronic temperature [K]:                       2000.0
                        Electronic temperature [a.u.]:                  6.33E-03
                        Accuracy threshold:                             1.00E-10
                        --------------------------------------------------------
                        No outer SCF

 PW_GRID| Information for grid number                                          1
 PW_GRID| Grid distributed over                                   128 processors
 PW_GRID| Real space group dimensions                                     8   16
 PW_GRID| the grid is blocked:                                               YES
 PW_GRID| Cutoff [a.u.]                                                    300.0
 PW_GRID| spherical cutoff:                                                   NO
 PW_GRID|   Bounds   1            -54      53                Points:         108
 PW_GRID|   Bounds   2            -54      53                Points:         108
 PW_GRID|   Bounds   3           -150     149                Points:         300
 PW_GRID| Volume element (a.u.^3)  0.1896E-02     Volume (a.u.^3)      6635.2971
 PW_GRID| Grid span                                                    FULLSPACE
 PW_GRID|   Distribution                         Average         Max         Min
 PW_GRID|   G-Vectors                            27337.5       28728       25272
 PW_GRID|   G-Rays                                 253.1         266         234
 PW_GRID|   Real Space Points                    27337.5       28728       25272

 PW_GRID| Information for grid number                                          2
 PW_GRID| Number of the reference grid                                         1
 PW_GRID| Grid distributed over                                   128 processors
 PW_GRID| Real space group dimensions                                     8   16
 PW_GRID| the grid is blocked:                                                NO
 PW_GRID| Cutoff [a.u.]                                                    100.0
 PW_GRID| spherical cutoff:                                                   NO
 PW_GRID|   Bounds   1            -30      29                Points:          60
 PW_GRID|   Bounds   2            -30      29                Points:          60
 PW_GRID|   Bounds   3            -90      89                Points:         180
 PW_GRID| Volume element (a.u.^3)  0.1024E-01     Volume (a.u.^3)      6635.2971
 PW_GRID| Grid span                                                    FULLSPACE
 PW_GRID|   Distribution                         Average         Max         Min
 PW_GRID|   G-Vectors                             5062.5       15960           0
 PW_GRID|   G-Rays                                  84.4         266           0
 PW_GRID|   Real Space Points                     5062.5        5760        3780

 PW_GRID| Information for grid number                                          3
 PW_GRID| Number of the reference grid                                         1
 PW_GRID| Grid distributed over                                   128 processors
 PW_GRID| Real space group dimensions                                     8   16
 PW_GRID| the grid is blocked:                                                NO
 PW_GRID| Cutoff [a.u.]                                                     33.3
 PW_GRID| spherical cutoff:                                                   NO
 PW_GRID|   Bounds   1            -18      17                Points:          36
 PW_GRID|   Bounds   2            -18      17                Points:          36
 PW_GRID|   Bounds   3            -50      49                Points:         100
 PW_GRID| Volume element (a.u.^3)  0.5120E-01     Volume (a.u.^3)      6635.2971
 PW_GRID| Grid span                                                    FULLSPACE
 PW_GRID|   Distribution                         Average         Max         Min
 PW_GRID|   G-Vectors                             1012.5        9576           0
 PW_GRID|   G-Rays                                  28.1         266           0
 PW_GRID|   Real Space Points                     1012.5        1500         800

 PW_GRID| Information for grid number                                          4
 PW_GRID| Number of the reference grid                                         1
 PW_GRID| Grid distributed over                                   128 processors
 PW_GRID| Real space group dimensions                                     8   16
 PW_GRID| the grid is blocked:                                                NO
 PW_GRID| Cutoff [a.u.]                                                     11.1
 PW_GRID| spherical cutoff:                                                   NO
 PW_GRID|   Bounds   1            -10       9                Points:          20
 PW_GRID|   Bounds   2            -10       9                Points:          20
 PW_GRID|   Bounds   3            -30      29                Points:          60
 PW_GRID| Volume element (a.u.^3)  0.2765         Volume (a.u.^3)      6635.2971
 PW_GRID| Grid span                                                    FULLSPACE
 PW_GRID|   Distribution                         Average         Max         Min
 PW_GRID|   G-Vectors                              187.5        3800           0
 PW_GRID|   G-Rays                                   9.4         190           0
 PW_GRID|   Real Space Points                      187.5         360         120

 PW_GRID| Information for grid number                                          5
 PW_GRID| Number of the reference grid                                         1
 PW_GRID| Grid distributed over                                   128 processors
 PW_GRID| Real space group dimensions                                     8   16
 PW_GRID| the grid is blocked:                                                NO
 PW_GRID| Cutoff [a.u.]                                                      3.7
 PW_GRID| spherical cutoff:                                                   NO
 PW_GRID|   Bounds   1             -6       5                Points:          12
 PW_GRID|   Bounds   2             -6       5                Points:          12
 PW_GRID|   Bounds   3            -18      17                Points:          36
 PW_GRID| Volume element (a.u.^3)   1.280         Volume (a.u.^3)      6635.2971
 PW_GRID| Grid span                                                    FULLSPACE
 PW_GRID|   Distribution                         Average         Max         Min
 PW_GRID|   G-Vectors                               40.5        1296           0
 PW_GRID|   G-Rays                                   3.4         108           0
 PW_GRID|   Real Space Points                       40.5          72           0

 POISSON| Solver                                                        PERIODIC
 POISSON| Periodicity                                                        XYZ

 RS_GRID| Information for grid number                                          1
 RS_GRID|   Bounds   1            -54      53                Points:         108
 RS_GRID|   Bounds   2            -54      53                Points:         108
 RS_GRID|   Bounds   3           -150     149                Points:         300
 RS_GRID| Real space distribution over                                  8 groups
 RS_GRID| Real space distribution along direction                              2
 RS_GRID| Border size                                                         28
 RS_GRID| Real space distribution over                                 16 groups
 RS_GRID| Real space distribution along direction                              3
 RS_GRID| Border size                                                         28
 RS_GRID|   Distribution                         Average         Max         Min
 RS_GRID|   Planes                                  69.5          70          69
 RS_GRID|   Distribution                         Average         Max         Min
 RS_GRID|   Planes                                  74.8          75          74

 RS_GRID| Information for grid number                                          2
 RS_GRID|   Bounds   1            -30      29                Points:          60
 RS_GRID|   Bounds   2            -30      29                Points:          60
 RS_GRID|   Bounds   3            -90      89                Points:         180
 RS_GRID| Real space fully replicated
 RS_GRID| Group size                                                           1

 RS_GRID| Information for grid number                                          3
 RS_GRID|   Bounds   1            -18      17                Points:          36
 RS_GRID|   Bounds   2            -18      17                Points:          36
 RS_GRID|   Bounds   3            -50      49                Points:         100
 RS_GRID| Real space fully replicated
 RS_GRID| Group size                                                           1

 RS_GRID| Information for grid number                                          4
 RS_GRID|   Bounds   1            -10       9                Points:          20
 RS_GRID|   Bounds   2            -10       9                Points:          20
 RS_GRID|   Bounds   3            -30      29                Points:          60
 RS_GRID| Real space fully replicated
 RS_GRID| Group size                                                           1

 RS_GRID| Information for grid number                                          5
 RS_GRID|   Bounds   1             -6       5                Points:          12
 RS_GRID|   Bounds   2             -6       5                Points:          12
 RS_GRID|   Bounds   3            -18      17                Points:          36
 RS_GRID| Real space fully replicated
 RS_GRID| Group size                                                           1

 Spin 1

 Number of electrons:                                                        297.600
 Number of occupied orbitals:                                                298
 Number of molecular orbitals:                                               832

 Spin 2

 Number of electrons:                                                        278.400
 Number of occupied orbitals:                                                279
 Number of molecular orbitals:                                               832

 Number of orbital functions:                                                832
 Number of independent orbital functions:                                    832

 Extrapolation method: initial_guess

 Atomic guess: The first density matrix is obtained in terms of atomic orbitals
               and electronic configurations assigned to each atomic kind

 Guess for atomic kind: Ni_i

 Electronic structure
    Total number of core electrons                                         10.00
    Total number of valence electrons                                      18.00
    Total number of electrons                                              28.00
    Multiplicity                                                         doublet
    Alpha Electrons
    S   [  1.00  1.00] 1.00  1.00
    P   [  3.00] 3.00
    D      4.35
    Beta Electrons
    S   [  1.00  1.00] 1.00  1.00
    P   [  3.00] 3.00
    D      3.65


 *******************************************************************************
                  Iteration          Convergence                     Energy [au]
 *******************************************************************************
                          1         1.51729                    -167.067424631347
                          2         15.3902                    -156.642654318634
                          3         2.33433                    -168.319355313541
                          4        0.206730                    -168.609905008081
                          5        0.814175E-01                -168.612873080494
                          6        0.173318E-01                -168.613470181066
                          7        0.290432E-02                -168.613543571401
                          8        0.311825E-02                -168.613543401474
                          9        0.179670E-03                -168.613544404477
                         10        0.169386E-02                -168.613544207811
                         11        0.473341E-03                -168.613544360253
                         12        0.165417E-03                -168.613544400419
                         13        0.162622E-03                -168.613544401489
                         14        0.158325E-03                -168.613544403900
                         15        0.177007E-03                -168.613544402509
                         16        0.138916E-03                -168.613544404900
                         17        0.934549E-04                -168.613544406149
                         18        0.119916E-03                -168.613544405789
                         19        0.131607E-03                -168.613544405591
                         20        0.169309E-03                -168.613544404773
                         21        0.551337E-04                -168.613544406656
                         22        0.382664E-04                -168.613544406759
                         23        0.378942E-04                -168.613544406765
                         24        0.381089E-04                -168.613544406765
                         25        0.390835E-04                -168.613544406759
                         26        0.308614E-04                -168.613544406841
                         27        0.205044E-04                -168.613544406892
                         28        0.200942E-04                -168.613544406893
                         29        0.199375E-04                -168.613544406893
                         30        0.200198E-04                -168.613544406894
                         31        0.161325E-04                -168.613544406903
                         32        0.330614E-05                -168.613544406925
                         33        0.238713E-05                -168.613544406926
                         34        0.265439E-05                -168.613544406926
                         35        0.277073E-05                -168.613544406926
                         36        0.335175E-05                -168.613544406926
                         37        0.148809E-05                -168.613544406927
                         38        0.133447E-05                -168.613544406927
                         39        0.918735E-06                -168.613544406927

 Energy components [Hartree]           Total Energy ::         -168.613544406927
                                        Band Energy ::          -26.569761966525
                                     Kinetic Energy ::           97.306723392622
                                   Potential Energy ::         -265.920267799548
                                      Virial (-V/T) ::            2.732804666812
                                        Core Energy ::         -299.567979157577
                                          XC Energy ::          -16.227189041387
                                     Coulomb Energy ::          147.181623792037
                       Total Pseudopotential Energy ::         -396.961043505191
                       Local Pseudopotential Energy ::         -362.648291121960
                    Nonlocal Pseudopotential Energy ::          -34.312752383230
                                        Confinement ::            0.863409549921

 Orbital energies  State     Spin  L     Occupation   Energy[a.u.]    Energy[eV]

                       1    alpha  0          1.000      -4.172666   -113.544030
                       2    alpha  0          1.000      -0.181431     -4.936983
                       1     beta  0          1.000      -4.140640   -112.672541
                       2     beta  0          1.000      -0.176372     -4.799339

                       1    alpha  1          3.000      -2.578739    -70.171064
                       1     beta  1          3.000      -2.547579    -69.323162

                       1    alpha  2          4.350      -0.327039     -8.899191
                       1     beta  2          3.650      -0.300569     -8.178887


 Total Electron Density at R=0:                                         0.030422

 Guess for atomic kind: Ni_b

 Electronic structure
    Total number of core electrons                                         10.00
    Total number of valence electrons                                      18.00
    Total number of electrons                                              28.00
    Multiplicity                                                         doublet
    Alpha Electrons
    S   [  1.00  1.00] 1.00  1.00
    P   [  3.00] 3.00
    D      4.25
    Beta Electrons
    S   [  1.00  1.00] 1.00  1.00
    P   [  3.00] 3.00
    D      3.75


 *******************************************************************************
                  Iteration          Convergence                     Energy [au]
 *******************************************************************************
                          1         1.51687                    -167.065012761055
                          2         14.9817                    -156.620431300845
                          3         2.25575                    -168.317311438693
                          4        0.189210                    -168.607926092750
                          5        0.708658E-01                -168.610773319290
                          6        0.122256E-01                -168.611238205502
                          7        0.598421E-02                -168.611272268995
                          8        0.528277E-02                -168.611272438110
                          9        0.104644E-02                -168.611275321653
                         10        0.260234E-02                -168.611274926630
                         11        0.975322E-03                -168.611275328217
                         12        0.161067E-03                -168.611275447773
                         13        0.147413E-03                -168.611275446839
                         14        0.115114E-03                -168.611275449434
                         15        0.167217E-03                -168.611275445436
                         16        0.255374E-04                -168.611275450531
                         17        0.418369E-04                -168.611275450414
                         18        0.393709E-04                -168.611275450477
                         19        0.239931E-04                -168.611275450542
                         20        0.173885E-04                -168.611275450557
                         21        0.851368E-05                -168.611275450578
                         22        0.849928E-05                -168.611275450580
                         23        0.544937E-05                -168.611275450584
                         24        0.540003E-05                -168.611275450586
                         25        0.613371E-05                -168.611275450584
                         26        0.311593E-06                -168.611275450588

 Energy components [Hartree]           Total Energy ::         -168.611275450588
                                        Band Energy ::          -26.568680144499
                                     Kinetic Energy ::           97.303659243130
                                   Potential Energy ::         -265.914934693718
                                      Virial (-V/T) ::            2.732835915546
                                        Core Energy ::         -299.566189183323
                                          XC Energy ::          -16.224592878785
                                     Coulomb Energy ::          147.179506611520
                       Total Pseudopotential Energy ::         -396.956189041778
                       Local Pseudopotential Energy ::         -362.645043136649
                    Nonlocal Pseudopotential Energy ::          -34.311145905129
                                        Confinement ::            0.863406153250

 Orbital energies  State     Spin  L     Occupation   Energy[a.u.]    Energy[eV]

                       1    alpha  0          1.000      -4.168335   -113.426177
                       2    alpha  0          1.000      -0.180730     -4.917906
                       1     beta  0          1.000      -4.145459   -112.803683
                       2     beta  0          1.000      -0.177117     -4.819606

                       1    alpha  1          3.000      -2.574525    -70.056390
                       1     beta  1          3.000      -2.552268    -69.450746

                       1    alpha  2          4.250      -0.323446     -8.801405
                       1     beta  2          3.750      -0.304537     -8.286881


 Total Electron Density at R=0:                                         0.030429

 Spin 1
 Re-scaling the density matrix to get the right number of electrons for spin 1
                  # Electrons              Trace(P)               Scaling factor
                        297.600             297.600                        1.000

 Spin 2
 Re-scaling the density matrix to get the right number of electrons for spin 2
                  # Electrons              Trace(P)               Scaling factor
                        278.400             278.400                        1.000


 SCF WAVEFUNCTION OPTIMIZATION

  Step     Update method      Time    Convergence         Total energy    Change
  ------------------------------------------------------------------------------
     1 NoMix/Diag. 0.80E-01    2.5     0.87318318     -5426.4441344177 -5.43E+03
     2 Broy./Diag. 0.80E-01    1.5     0.08096379     -5319.3941775679  1.07E+02
[...]
   131 Broy./Diag. 0.80E-01    1.5     0.02827950     -5417.8520316798  2.10E-01
   132 Broy./Diag. 0.80E-01    1.6     0.01520010     -5417.8821274627 -3.01E-02
   133 Broy./Diag. 0.80E-01    1.5     0.01470176     -5417.8127889257  6.93E-02
   134 Broy./Diag. 0.80E-01    1.5     0.02743611     -5417.8226025552 -9.81E-03
   135 Broy./Diag. 0.80E-01    1.5     0.02432496     -5417.7642543382  5.83E-02
   136 Broy./Diag. 0.80E-01    1.5     0.02137123     -5417.8200103243 -5.58E-02
   137 Broy./Diag. 0.80E-01    1.5     0.02680046     -5417.7851653418  3.48E-02
   138 Broy./Diag. 0.80E-01    1.5     0.02884032     -5417.9771847364 -1.92E-01
   139 Broy./Diag. 0.80E-01    1.5     0.03337848     -5418.0977129045 -1.21E-01
   140 Broy./Diag. 0.80E-01    1.5     0.05285889     -5418.2208968252 -1.23E-01
   141 Broy./Diag. 0.80E-01    1.5     0.03157036     -5418.4372477074 -2.16E-01
   142 Broy./Diag. 0.80E-01    1.5     0.01237140     -5418.2196791395  2.18E-01
   143 Broy./Diag. 0.80E-01    1.5     0.06634264     -5418.1693911857  5.03E-02
   144 Broy./Diag. 0.80E-01    1.5     0.05450174     -5418.3082855028 -1.39E-01
   145 Broy./Diag. 0.80E-01    1.5     0.06244804     -5418.0402059184  2.68E-01
   146 Broy./Diag. 0.80E-01    1.5     0.04650563     -5418.3525697375 -3.12E-01
   147 Broy./Diag. 0.80E-01    1.5     0.03858752     -5418.1758406135  1.77E-01
   148 Broy./Diag. 0.80E-01    1.5     0.02567099     -5418.1252728479  5.06E-02
   149 Broy./Diag. 0.80E-01    1.5     0.04052742     -5417.9631853481  1.62E-01
   150 Broy./Diag. 0.80E-01    1.5     0.02103858     -5417.8373472234  1.26E-01
   151 Broy./Diag. 0.80E-01    1.5     0.02376693     -5417.7120626399  1.25E-01
   152 Broy./Diag. 0.80E-01    1.5     0.04167433     -5417.6384997459  7.36E-02
   153 Broy./Diag. 0.80E-01    1.5     0.07091924     -5417.7188141210 -8.03E-02
   154 Broy./Diag. 0.80E-01    1.5     0.06072147     -5417.7818219907 -6.30E-02
   155 Broy./Diag. 0.80E-01    1.5     0.09171239     -5417.8339421099 -5.21E-02
   156 Broy./Diag. 0.80E-01    1.5     0.01865697     -5417.8107745771  2.32E-02
   157 Broy./Diag. 0.80E-01    1.5     0.01763612     -5417.8429400866 -3.22E-02
   158 Broy./Diag. 0.80E-01    1.5     0.08451010     -5417.8348007749  8.14E-03
   159 Broy./Diag. 0.80E-01    1.5     0.06034855     -5418.0392767061 -2.04E-01
   160 Broy./Diag. 0.80E-01    1.5     0.05495830     -5417.5680834298  4.71E-01
   161 Broy./Diag. 0.80E-01    1.5     0.06016250     -5417.4402488167  1.28E-01
   162 Broy./Diag. 0.80E-01    1.5     0.05600147     -5417.4667524729 -2.65E-02
   163 Broy./Diag. 0.80E-01    1.5     0.21405921     -5417.6258110410 -1.59E-01
   164 Broy./Diag. 0.80E-01    1.5     0.04103571     -5417.8208255823 -1.95E-01
   165 Broy./Diag. 0.80E-01    1.5     0.10369332     -5417.6267507138  1.94E-01
   166 Broy./Diag. 0.80E-01    1.5     0.03527194     -5417.6076027687  1.91E-02
   167 Broy./Diag. 0.80E-01    1.5     0.06300458     -5417.4260852678  1.82E-01
   168 Broy./Diag. 0.80E-01    1.5     0.01092342     -5417.3902527970  3.58E-02
   169 Broy./Diag. 0.80E-01    1.5     0.03153721     -5417.4412983145 -5.10E-02
   170 Broy./Diag. 0.80E-01    1.5     0.03889024     -5417.5078359190 -6.65E-02
   171 Broy./Diag. 0.80E-01    1.5     0.07800258     -5417.6146225829 -1.07E-01
   172 Broy./Diag. 0.80E-01    1.5     0.06591599     -5417.6378211390 -2.32E-02
   173 Broy./Diag. 0.80E-01    1.5     0.06247419     -5417.8140315028 -1.76E-01
   174 Broy./Diag. 0.80E-01    1.5     0.03821838     -5417.9996742149 -1.86E-01
   175 Broy./Diag. 0.80E-01    1.5     0.04142862     -5417.8420214541  1.58E-01
   176 Broy./Diag. 0.80E-01    1.5     0.05342177     -5417.9857481530 -1.44E-01
   177 Broy./Diag. 0.80E-01    1.5     0.06654171     -5417.8086427446  1.77E-01
   178 Broy./Diag. 0.80E-01    1.5     0.03111988     -5417.7987110223  9.93E-03
   179 Broy./Diag. 0.80E-01    1.5     0.01564916     -5417.8138853602 -1.52E-02
   180 Broy./Diag. 0.80E-01    1.5     0.04680570     -5417.8802783571 -6.64E-02
   181 Broy./Diag. 0.80E-01    1.5     0.08293596     -5417.8805113562 -2.33E-04
   182 Broy./Diag. 0.80E-01    1.5     0.11387973     -5418.0183625292 -1.38E-01
   183 Broy./Diag. 0.80E-01    1.5     0.05696433     -5417.8926588871  1.26E-01
   184 Broy./Diag. 0.80E-01    1.5     0.23378446     -5417.8599590769  3.27E-02
   185 Broy./Diag. 0.80E-01    1.5     0.09621121     -5418.1224897960 -2.63E-01
   186 Broy./Diag. 0.80E-01    1.5     0.09226051     -5417.8612143611  2.61E-01
   187 Broy./Diag. 0.80E-01    1.5     0.13302617     -5417.9134778987 -5.23E-02
   188 Broy./Diag. 0.80E-01    1.5     0.02201966     -5417.7889810436  1.24E-01
   189 Broy./Diag. 0.80E-01    1.5     0.08520293     -5417.7368416801  5.21E-02
   190 Broy./Diag. 0.80E-01    1.5     0.11627976     -5417.9065372510 -1.70E-01
   191 Broy./Diag. 0.80E-01    1.5     0.07531642     -5418.0203967960 -1.14E-01
   192 Broy./Diag. 0.80E-01    1.5     0.06762237     -5417.8989050274  1.21E-01
   193 Broy./Diag. 0.80E-01    1.5     0.02884014     -5417.7716256451  1.27E-01
   194 Broy./Diag. 0.80E-01    1.5     0.07121454     -5417.8533378497 -8.17E-02
   195 Broy./Diag. 0.80E-01    1.5     0.14863897     -5417.8159787826  3.74E-02
   196 Broy./Diag. 0.80E-01    1.5     0.03483689     -5417.8449247456 -2.89E-02
   197 Broy./Diag. 0.80E-01    1.5     0.03710609     -5417.9378417095 -9.29E-02
   198 Broy./Diag. 0.80E-01    1.5     0.05805552     -5417.9552654762 -1.74E-02
   199 Broy./Diag. 0.80E-01    1.5     0.11783154     -5417.8824817526  7.28E-02
   200 Broy./Diag. 0.80E-01    1.5     0.19504707     -5417.7995009223  8.30E-02
   201 Broy./Diag. 0.80E-01    1.5     0.10402365     -5417.8223099789 -2.28E-02
   202 Broy./Diag. 0.80E-01    1.5     0.07053403     -5417.8758309549 -5.35E-02
   203 Broy./Diag. 0.80E-01    1.5     0.07115367     -5417.6995956660  1.76E-01
   204 Broy./Diag. 0.80E-01    1.5     0.09232164     -5417.7381965304 -3.86E-02
   205 Broy./Diag. 0.80E-01    1.5     0.05839487     -5417.9025278437 -1.64E-01
   206 Broy./Diag. 0.80E-01    1.5     0.06372465     -5417.7492197331  1.53E-01
   207 Broy./Diag. 0.80E-01    1.5     0.15471703     -5417.8426621111 -9.34E-02
   208 Broy./Diag. 0.80E-01    1.5     0.05757402     -5417.8920032075 -4.93E-02
   209 Broy./Diag. 0.80E-01    1.5     0.17040549     -5417.7562419065  1.36E-01
   210 Broy./Diag. 0.80E-01    1.5     0.12495653     -5418.3000723024 -5.44E-01
   211 Broy./Diag. 0.80E-01    1.5     0.09500443     -5418.1236425325  1.76E-01
   212 Broy./Diag. 0.80E-01    1.5     0.11768152     -5417.8884180695  2.35E-01
   213 Broy./Diag. 0.80E-01    1.5     0.02660287     -5417.9854815032 -9.71E-02
   214 Broy./Diag. 0.80E-01    1.5     0.15420319     -5418.1281945720 -1.43E-01
   215 Broy./Diag. 0.80E-01    1.6     0.13393865     -5417.8595463324  2.69E-01
   216 Broy./Diag. 0.80E-01    1.5     0.06333290     -5417.8261435618  3.34E-02
   217 Broy./Diag. 0.80E-01    1.5     0.17967583     -5417.8858505080 -5.97E-02
   218 Broy./Diag. 0.80E-01    1.5     0.16753440     -5417.6509449664  2.35E-01
   219 Broy./Diag. 0.80E-01    1.5     0.08156152     -5417.7454532064 -9.45E-02
   220 Broy./Diag. 0.80E-01    1.5     0.17476759     -5417.9176917776 -1.72E-01
   221 Broy./Diag. 0.80E-01    1.5     0.06400189     -5417.9792595015 -6.16E-02
   222 Broy./Diag. 0.80E-01    1.5     0.09472608     -5418.1850668342 -2.06E-01
   223 Broy./Diag. 0.80E-01    1.5     0.08980302     -5418.3089087304 -1.24E-01
   224 Broy./Diag. 0.80E-01    1.5     0.06900008     -5418.1999041388  1.09E-01
   225 Broy./Diag. 0.80E-01    1.5     0.09167346     -5418.2808256626 -8.09E-02
   226 Broy./Diag. 0.80E-01    1.5     0.19229693     -5418.1114728468  1.69E-01
   227 Broy./Diag. 0.80E-01    1.5     0.07743199     -5418.0193040654  9.22E-02
   228 Broy./Diag. 0.80E-01    1.5     0.11229021     -5418.2576215614 -2.38E-01
   229 Broy./Diag. 0.80E-01    1.5     0.18959461     -5418.1106885691  1.47E-01
   230 Broy./Diag. 0.80E-01    1.5     0.19934958     -5418.8026121875 -6.92E-01
   231 Broy./Diag. 0.80E-01    1.5     0.05653153     -5418.3049600511  4.98E-01
   232 Broy./Diag. 0.80E-01    1.5     0.08793533     -5418.1143426692  1.91E-01
   233 Broy./Diag. 0.80E-01    1.5     0.14343789     -5418.5422304453 -4.28E-01
   234 Broy./Diag. 0.80E-01    1.5     0.18891274     -5418.1933762507  3.49E-01
   235 Broy./Diag. 0.80E-01    1.5     0.25615382     -5418.2168096632 -2.34E-02
   236 Broy./Diag. 0.80E-01    1.5     0.08574903     -5418.3144037676 -9.76E-02
   237 Broy./Diag. 0.80E-01    1.5     0.07603984     -5418.3080360536  6.37E-03
   238 Broy./Diag. 0.80E-01    1.5     0.09580494     -5417.8882045178  4.20E-01
   239 Broy./Diag. 0.80E-01    1.5     0.05115209     -5417.8461098007  4.21E-02
   240 Broy./Diag. 0.80E-01    1.5     0.13392076     -5417.8428197283  3.29E-03
   241 Broy./Diag. 0.80E-01    1.5     0.18912291     -5417.9441305110 -1.01E-01
   242 Broy./Diag. 0.80E-01    1.5     0.35401422     -5417.8163037800  1.28E-01
   243 Broy./Diag. 0.80E-01    1.5     0.24124320     -5418.2711291867 -4.55E-01
   244 Broy./Diag. 0.80E-01    1.5     0.10612768     -5418.1437527199  1.27E-01
   245 Broy./Diag. 0.80E-01    1.5     0.07476835     -5418.0969286815  4.68E-02
   246 Broy./Diag. 0.80E-01    1.5     0.12876303     -5417.9791898261  1.18E-01
   247 Broy./Diag. 0.80E-01    1.5     0.06893721     -5417.9872153855 -8.03E-03
   248 Broy./Diag. 0.80E-01    1.5     0.09242286     -5417.8924699343  9.47E-02
   249 Broy./Diag. 0.80E-01    1.5     0.13531089     -5417.6290536043  2.63E-01
   250 Broy./Diag. 0.80E-01    1.5     0.28330828     -5417.8690812917 -2.40E-01
   251 Broy./Diag. 0.80E-01    1.5     0.06794446     -5418.0428098520 -1.74E-01
   252 Broy./Diag. 0.80E-01    1.5     0.05780155     -5417.8185789214  2.24E-01
   253 Broy./Diag. 0.80E-01    1.5     0.11259518     -5417.9181884962 -9.96E-02
   254 Broy./Diag. 0.80E-01    1.5     0.20144301     -5417.8996622696  1.85E-02
   255 Broy./Diag. 0.80E-01    1.5     0.04045460     -5418.1946958630 -2.95E-01
   256 Broy./Diag. 0.80E-01    1.5     0.14243485     -5418.1510769160  4.36E-02
   257 Broy./Diag. 0.80E-01    1.5     0.37902078     -5418.3745440546 -2.23E-01
   258 Broy./Diag. 0.80E-01    1.5     0.23014883     -5418.4550261361 -8.05E-02
   259 Broy./Diag. 0.80E-01    1.5     0.23818091     -5418.0065830444  4.48E-01
   260 Broy./Diag. 0.80E-01    1.5     0.16233285     -5418.3898853339 -3.83E-01
   261 Broy./Diag. 0.80E-01    1.5     0.14374129     -5417.7057352014  6.84E-01
   262 Broy./Diag. 0.80E-01    1.5     0.31152230     -5418.0476172998 -3.42E-01
   263 Broy./Diag. 0.80E-01    1.5     0.05709804     -5417.8184167956  2.29E-01
   264 Broy./Diag. 0.80E-01    1.5     0.03625992     -5417.7351020311  8.33E-02
   265 Broy./Diag. 0.80E-01    1.5     0.37673537     -5417.7468385507 -1.17E-02
   266 Broy./Diag. 0.80E-01    1.5     0.33038157     -5417.5890192637  1.58E-01
   267 Broy./Diag. 0.80E-01    1.5     0.22861355     -5416.8379115179  7.51E-01
   268 Broy./Diag. 0.80E-01    1.5     0.11823120     -5416.9596571893 -1.22E-01
   269 Broy./Diag. 0.80E-01    1.5     0.12235265     -5416.8926180385  6.70E-02
   270 Broy./Diag. 0.80E-01    1.5     0.15827364     -5416.9271189726 -3.45E-02
   271 Broy./Diag. 0.80E-01    1.5     0.09458102     -5417.0417931447 -1.15E-01
   272 Broy./Diag. 0.80E-01    1.5     0.35735910     -5417.1853101309 -1.44E-01
   273 Broy./Diag. 0.80E-01    1.5     0.17781002     -5417.3417965642 -1.56E-01
   274 Broy./Diag. 0.80E-01    1.5     0.10222197     -5417.9924256874 -6.51E-01
   275 Broy./Diag. 0.80E-01    1.5     0.35581609     -5417.5822996221  4.10E-01
   276 Broy./Diag. 0.80E-01    1.5     0.08700193     -5418.3333478478 -7.51E-01
   277 Broy./Diag. 0.80E-01    1.5     0.03240283     -5418.7114387138 -3.78E-01
   278 Broy./Diag. 0.80E-01    1.5     0.05924917     -5418.8194388411 -1.08E-01
   279 Broy./Diag. 0.80E-01    1.5     0.09028568     -5419.1170263490 -2.98E-01
   280 Broy./Diag. 0.80E-01    1.5     0.09887387     -5419.3776441922 -2.61E-01
   281 Broy./Diag. 0.80E-01    1.5     0.18149845     -5418.9026584558  4.75E-01
   282 Broy./Diag. 0.80E-01    1.5     0.06240675     -5418.1454706788  7.57E-01
   283 Broy./Diag. 0.80E-01    1.5     0.14898235     -5418.3428045525 -1.97E-01
   284 Broy./Diag. 0.80E-01    1.5     0.23373952     -5418.2624191135  8.04E-02
   285 Broy./Diag. 0.80E-01    1.5     0.20154087     -5418.0224607511  2.40E-01
   286 Broy./Diag. 0.80E-01    1.5     0.12235323     -5418.5516516868 -5.29E-01
   287 Broy./Diag. 0.80E-01    1.5     0.14059989     -5418.8229601518 -2.71E-01
   288 Broy./Diag. 0.80E-01    1.5     0.08450989     -5418.5325133640  2.90E-01
   289 Broy./Diag. 0.80E-01    1.5     0.21954954     -5418.7156337937 -1.83E-01
   290 Broy./Diag. 0.80E-01    1.5     0.09723874     -5418.3451739500  3.70E-01
   291 Broy./Diag. 0.80E-01    1.5     0.19899143     -5418.1518797839  1.93E-01
   292 Broy./Diag. 0.80E-01    1.5     0.08586401     -5418.5357323610 -3.84E-01
   293 Broy./Diag. 0.80E-01    1.5     0.10380146     -5418.7104046222 -1.75E-01
   294 Broy./Diag. 0.80E-01    1.5     0.19918975     -5418.3369257883  3.73E-01
   295 Broy./Diag. 0.80E-01    1.5     0.13060071     -5417.6685134605  6.68E-01
   296 Broy./Diag. 0.80E-01    1.5     0.27603319     -5418.1958883624 -5.27E-01
   297 Broy./Diag. 0.80E-01    1.5     0.11320106     -5418.2450693499 -4.92E-02
   298 Broy./Diag. 0.80E-01    1.5     0.05433455     -5418.0764024175  1.69E-01
   299 Broy./Diag. 0.80E-01    1.5     0.12628116     -5418.1112534415 -3.49E-02
   300 Broy./Diag. 0.80E-01    1.5     0.23455890     -5418.0519398947  5.93E-02
   301 Broy./Diag. 0.80E-01    1.5     0.25149762     -5418.2557902838 -2.04E-01
   302 Broy./Diag. 0.80E-01    1.5     0.13376985     -5417.9084061856  3.47E-01
   303 Broy./Diag. 0.80E-01    1.5     0.24748400     -5418.1585951841 -2.50E-01
   304 Broy./Diag. 0.80E-01    1.5     0.17485410     -5418.0388335359  1.20E-01
   305 Broy./Diag. 0.80E-01    1.5     0.06814817     -5417.7018975371  3.37E-01
   306 Broy./Diag. 0.80E-01    1.5     0.13162235     -5417.7395860279 -3.77E-02
   307 Broy./Diag. 0.80E-01    1.5     0.17607850     -5418.0092142046 -2.70E-01
   308 Broy./Diag. 0.80E-01    1.5     0.18579543     -5418.5348012159 -5.26E-01
   309 Broy./Diag. 0.80E-01    1.5     0.24661503     -5418.2924788428  2.42E-01
   310 Broy./Diag. 0.80E-01    1.5     0.36538936     -5418.0184160546  2.74E-01
   311 Broy./Diag. 0.80E-01    1.5     0.29377815     -5418.8360134347 -8.18E-01
   312 Broy./Diag. 0.80E-01    1.5     0.12172142     -5418.4322748127  4.04E-01
   313 Broy./Diag. 0.80E-01    1.5     0.11213784     -5418.2365694134  1.96E-01
   314 Broy./Diag. 0.80E-01    1.5     0.10532020     -5418.4986047132 -2.62E-01
   315 Broy./Diag. 0.80E-01    1.5     0.14368593     -5419.0449792754 -5.46E-01
   316 Broy./Diag. 0.80E-01    1.5     0.30576853     -5418.2710276071  7.74E-01
   317 Broy./Diag. 0.80E-01    1.5     0.13115649     -5419.1485211781 -8.77E-01
   318 Broy./Diag. 0.80E-01    1.5     0.21779823     -5419.3899534773 -2.41E-01
   319 Broy./Diag. 0.80E-01    1.5     0.39130347     -5419.2540216011  1.36E-01
   320 Broy./Diag. 0.80E-01    1.5     0.52345706     -5418.4707145225  7.83E-01
   321 Broy./Diag. 0.80E-01    1.5     0.51643356     -5418.4787775050 -8.06E-03
   322 Broy./Diag. 0.80E-01    1.5     0.33538617     -5419.2316150729 -7.53E-01
   323 Broy./Diag. 0.80E-01    1.5     0.24899369     -5418.4103560151  8.21E-01
   324 Broy./Diag. 0.80E-01    1.5     0.04453406     -5418.1480985749  2.62E-01
   325 Broy./Diag. 0.80E-01    1.5     0.27763196     -5418.0018416296  1.46E-01
   326 Broy./Diag. 0.80E-01    1.5     0.20918429     -5417.8349254841  1.67E-01
   327 Broy./Diag. 0.80E-01    1.5     0.18194331     -5418.5017036140 -6.67E-01
   328 Broy./Diag. 0.80E-01    1.5     0.20959962     -5419.1374621401 -6.36E-01
   329 Broy./Diag. 0.80E-01    1.5     0.28352614     -5419.0700961319  6.74E-02
   330 Broy./Diag. 0.80E-01    1.5     0.15806782     -5418.8049430654  2.65E-01
   331 Broy./Diag. 0.80E-01    1.5     0.15936075     -5418.9151313494 -1.10E-01
   332 Broy./Diag. 0.80E-01    1.5     0.17927250     -5418.7332516032  1.82E-01
   333 Broy./Diag. 0.80E-01    1.5     0.16049950     -5418.4251883843  3.08E-01
   334 Broy./Diag. 0.80E-01    1.5     0.27230978     -5418.9871944047 -5.62E-01
   335 Broy./Diag. 0.80E-01    1.5     0.20732090     -5419.7222608525 -7.35E-01
   336 Broy./Diag. 0.80E-01    1.5     0.19197231     -5418.6294001308  1.09E+00
   337 Broy./Diag. 0.80E-01    1.5     0.20402681     -5418.8199592760 -1.91E-01
   338 Broy./Diag. 0.80E-01    1.5     0.15713097     -5418.9529670761 -1.33E-01
   339 Broy./Diag. 0.80E-01    1.5     0.04335119     -5418.9196480717  3.33E-02
   340 Broy./Diag. 0.80E-01    1.5     0.36610606     -5419.0548227919 -1.35E-01
   341 Broy./Diag. 0.80E-01    1.5     0.15648774     -5418.0256664785  1.03E+00
   342 Broy./Diag. 0.80E-01    1.5     0.11169433     -5418.2787656477 -2.53E-01
   343 Broy./Diag. 0.80E-01    1.5     0.45952200     -5417.9064982401  3.72E-01
   344 Broy./Diag. 0.80E-01    1.5     0.16759999     -5418.0511407009 -1.45E-01
   345 Broy./Diag. 0.80E-01    1.5     0.19922642     -5417.8267934070  2.24E-01
   346 Broy./Diag. 0.80E-01    1.5     0.31427507     -5417.8471061525 -2.03E-02
   347 Broy./Diag. 0.80E-01    1.5     0.36324729     -5418.3243553461 -4.77E-01
   348 Broy./Diag. 0.80E-01    1.5     0.56306920     -5417.5366266422  7.88E-01
   349 Broy./Diag. 0.80E-01    1.5     0.20735911     -5419.0646449869 -1.53E+00
   350 Broy./Diag. 0.80E-01    1.5     0.19068906     -5419.0031947398  6.15E-02
   351 Broy./Diag. 0.80E-01    1.5     0.41038879     -5418.8367633915  1.66E-01
   352 Broy./Diag. 0.80E-01    1.5     0.24684017     -5418.7498229296  8.69E-02
   353 Broy./Diag. 0.80E-01    1.5     0.46748911     -5419.2435510451 -4.94E-01
   354 Broy./Diag. 0.80E-01    1.5     0.09241294     -5418.8518927970  3.92E-01
   355 Broy./Diag. 0.80E-01    1.5     0.13036445     -5418.7812505949  7.06E-02
   356 Broy./Diag. 0.80E-01    1.5     0.34489350     -5419.0773340632 -2.96E-01
   357 Broy./Diag. 0.80E-01    1.5     0.25998411     -5418.3088999272  7.68E-01
   358 Broy./Diag. 0.80E-01    1.5     0.33725134     -5419.3571145652 -1.05E+00
   359 Broy./Diag. 0.80E-01    1.5     0.32514586     -5418.8606297467  4.96E-01
   360 Broy./Diag. 0.80E-01    1.5     0.35026049     -5418.8012735256  5.94E-02
   361 Broy./Diag. 0.80E-01    1.5     0.46189257     -5418.4258677382  3.75E-01
   362 Broy./Diag. 0.80E-01    1.5     0.10985733     -5418.0895858171  3.36E-01
   363 Broy./Diag. 0.80E-01    1.5     0.60382344     -5418.2617154748 -1.72E-01
   364 Broy./Diag. 0.80E-01    1.5     0.56157267     -5418.3665598367 -1.05E-01
   365 Broy./Diag. 0.80E-01    1.5     0.62973217     -5419.1513738237 -7.85E-01
   366 Broy./Diag. 0.80E-01    1.5     0.72698962     -5418.4226022995  7.29E-01
   367 Broy./Diag. 0.80E-01    1.5     0.82993795     -5416.0341642452  2.39E+00
   368 Broy./Diag. 0.80E-01    1.5     0.13601352     -5418.9673229885 -2.93E+00
   369 Broy./Diag. 0.80E-01    1.5     0.31791202     -5419.3928203790 -4.25E-01
   370 Broy./Diag. 0.80E-01    1.5     0.13376477     -5418.7527997114  6.40E-01
   371 Broy./Diag. 0.80E-01    1.5     0.42099030     -5418.8692818197 -1.16E-01
   372 Broy./Diag. 0.80E-01    1.5     0.63851104     -5417.7274443683  1.14E+00
   373 Broy./Diag. 0.80E-01    1.5     0.81083774     -5419.3496597129 -1.62E+00
   374 Broy./Diag. 0.80E-01    1.5     0.10823754     -5417.7799122431  1.57E+00
   375 Broy./Diag. 0.80E-01    1.5     0.47455266     -5417.7552654485  2.46E-02
   376 Broy./Diag. 0.80E-01    1.5     0.64385620     -5417.5701503788  1.85E-01
