 DBCSR| CPU Multiplication driver                                           XSMM (U)
 DBCSR| Multrec recursion limit                                              512 (U)
 DBCSR| Multiplication stack size                                           1000 (D)
 DBCSR| Maximum elements for images                                    UNLIMITED (U)
 DBCSR| Multiplicative factor virtual images                                   1 (U)
 DBCSR| Use multiplication densification                                       T (D)
 DBCSR| Multiplication size stacks                                             3 (U)
 DBCSR| Use memory pool for CPU allocation                                     F (U)
 DBCSR| Number of 3D layers                                               SINGLE (U)
 DBCSR| Use MPI memory allocation                                              F (U)
 DBCSR| Use RMA algorithm                                                      F (U)
 DBCSR| Use Communication thread                                               T (U)
 DBCSR| Communication thread load                                             87 (D)
 DBCSR| MPI: My process id                                                     0
 DBCSR| MPI: Number of processes                                             128
 DBCSR| OMP: Current number of threads                                         1
 DBCSR| OMP: Max number of threads                                             1
 DBCSR| Split modifier for TAS multiplication algorithm                  1.0E+00 (U)


  **** **** ******  **  PROGRAM STARTED AT               2023-02-06 17:16:20.509
 ***** ** ***  *** **   PROGRAM STARTED ON                             nid003068
 **    ****   ******    PROGRAM STARTED BY                                cahart
 ***** **    ** ** **   PROGRAM PROCESS ID                                166628
  **** **  *******  **  PROGRAM STARTED IN /mnt/lustre/a2fs-work2/work/e05/e05/c
                                           ahart/postdoc/masters/ni/archer2/bulk
                                           /optimise/multiplicity-65_mos-30_temp
                                           -300/search/5.0E-02_4.0E-03

 CP2K| version string:                                       CP2K version 2023.1
 CP2K| source code revision number:                                  git:b888bd8
 CP2K| cp2kflags: omp libint fftw3 libxc elpa parallel scalapack xsmm plumed2 mk
 CP2K|            l
 CP2K| is freely available from                            https://www.cp2k.org/
 CP2K| Program compiled at                          Tue Jan 24 12:43:13 GMT 2023
 CP2K| Program compiled on                                                  ln03
 CP2K| Program compiled for                                              ARCHER2
 CP2K| Data directory path    /mnt/lustre/a2fs-work1/work/y07/shared/apps/core/c
 CP2K| Input file name                                                  cp2k.inp

 GLOBAL| Force Environment number                                              1
 GLOBAL| Basis set file name                                        BASIS_MOLOPT
 GLOBAL| Potential file name                                      GTH_POTENTIALS
 GLOBAL| MM Potential file name                                     MM_POTENTIAL
 GLOBAL| Coordinate file name                                      __STD_INPUT__
 GLOBAL| Method name                                                        CP2K
 GLOBAL| Project name                                                    Ni_bulk
 GLOBAL| Run type                                                         ENERGY
 GLOBAL| FFT library                                                       FFTW3
 GLOBAL| Diagonalization library                                            ELPA
 GLOBAL| DGEMM library                                                      BLAS
 GLOBAL| Minimum number of eigenvectors for ELPA usage                        16
 GLOBAL| Orthonormality check for eigenvectors                          DISABLED
 GLOBAL| Matrix multiplication library                                 ScaLAPACK
 GLOBAL| All-to-all communication in single precision                          F
 GLOBAL| FFTs using library dependent lengths                                  F
 GLOBAL| Grid backend                                                       AUTO
 GLOBAL| Global print level                                               MEDIUM
 GLOBAL| MPI I/O enabled                                                       T
 GLOBAL| Total number of message passing processes                           128
 GLOBAL| Number of threads for this process                                    1
 GLOBAL| This output is from process                                           0
 GLOBAL| Stack size for threads created by OpenMP (OMP_STACKSIZE)        default
 GLOBAL| CPU model name                          AMD EPYC 7742 64-Core Processor
 GLOBAL| CPUID                                                              1002

 MEMORY| system memory details [Kb]
 MEMORY|                        rank 0           min           max       average
 MEMORY| MemTotal            263528084     263528084     263528084     263528084
 MEMORY| MemFree             242245224     242245224     242245476     242245241
 MEMORY| Buffers                 25136         25136         25136         25136
 MEMORY| Cached                 725556        725540        725600        725548
 MEMORY| Slab                  1546052       1546036       1546052       1546038
 MEMORY| SReclaimable            92832         92828         92832         92828
 MEMORY| MemLikelyFree       243088748     243088728     243089044     243088754


 *** Fundamental physical constants (SI units) ***

 *** Literature: B. J. Mohr and B. N. Taylor,
 ***             CODATA recommended values of the fundamental physical
 ***             constants: 2006, Web Version 5.1
 ***             http://physics.nist.gov/constants

 Speed of light in vacuum [m/s]                             2.99792458000000E+08
 Magnetic constant or permeability of vacuum [N/A**2]       1.25663706143592E-06
 Electric constant or permittivity of vacuum [F/m]          8.85418781762039E-12
 Planck constant (h) [J*s]                                  6.62606896000000E-34
 Planck constant (h-bar) [J*s]                              1.05457162825177E-34
 Elementary charge [C]                                      1.60217648700000E-19
 Electron mass [kg]                                         9.10938215000000E-31
 Electron g factor [ ]                                     -2.00231930436220E+00
 Proton mass [kg]                                           1.67262163700000E-27
 Fine-structure constant                                    7.29735253760000E-03
 Rydberg constant [1/m]                                     1.09737315685270E+07
 Avogadro constant [1/mol]                                  6.02214179000000E+23
 Boltzmann constant [J/K]                                   1.38065040000000E-23
 Atomic mass unit [kg]                                      1.66053878200000E-27
 Bohr radius [m]                                            5.29177208590000E-11

 *** Conversion factors ***

 [u] -> [a.u.]                                              1.82288848426455E+03
 [Angstrom] -> [Bohr] = [a.u.]                              1.88972613288564E+00
 [a.u.] = [Bohr] -> [Angstrom]                              5.29177208590000E-01
 [a.u.] -> [s]                                              2.41888432650478E-17
 [a.u.] -> [fs]                                             2.41888432650478E-02
 [a.u.] -> [J]                                              4.35974393937059E-18
 [a.u.] -> [N]                                              8.23872205491840E-08
 [a.u.] -> [K]                                              3.15774647902944E+05
 [a.u.] -> [kJ/mol]                                         2.62549961709828E+03
 [a.u.] -> [kcal/mol]                                       6.27509468713739E+02
 [a.u.] -> [Pa]                                             2.94210107994716E+13
 [a.u.] -> [bar]                                            2.94210107994716E+08
 [a.u.] -> [atm]                                            2.90362800883016E+08
 [a.u.] -> [eV]                                             2.72113838565563E+01
 [a.u.] -> [Hz]                                             6.57968392072181E+15
 [a.u.] -> [1/cm] (wave numbers)                            2.19474631370540E+05
 [a.u./Bohr**2] -> [1/cm]                                   5.14048714338585E+03
 

 CELL_TOP| Volume [angstrom^3]:                                       344.707437
 CELL_TOP| Vector a [angstrom     7.012     0.000     0.000   |a| =     7.011596
 CELL_TOP| Vector b [angstrom     0.000     7.012     0.000   |b| =     7.011596
 CELL_TOP| Vector c [angstrom     0.000     0.000     7.012   |c| =     7.011596
 CELL_TOP| Angle (b,c), alpha [degree]:                                90.000000
 CELL_TOP| Angle (a,c), beta  [degree]:                                90.000000
 CELL_TOP| Angle (a,b), gamma [degree]:                                90.000000
 CELL_TOP| Numerically orthorhombic:                                         YES
 CELL_TOP| Periodicity                                                       XYZ

 CELL_UC| Volume [angstrom^3]:                                         43.088430
 CELL_UC| Vector a [angstrom]     3.506     0.000     0.000   |a| =     3.505798
 CELL_UC| Vector b [angstrom]     0.000     3.506     0.000   |b| =     3.505798
 CELL_UC| Vector c [angstrom]     0.000     0.000     3.506   |c| =     3.505798
 CELL_UC| Angle (b,c), alpha [degree]:                                 90.000000
 CELL_UC| Angle (a,c), beta  [degree]:                                 90.000000
 CELL_UC| Angle (a,b), gamma [degree]:                                 90.000000
 CELL_UC| Numerically orthorhombic:                                          YES
 CELL_UC| Periodicity                                                        XYZ

 GENERATE|  Preliminary Number of Bonds generated:                             0
 GENERATE|  Achieved consistency in connectivity generation.

 CELL| Volume [angstrom^3]:                                           344.707437
 CELL| Vector a [angstrom]:       7.012     0.000     0.000   |a| =     7.011596
 CELL| Vector b [angstrom]:       0.000     7.012     0.000   |b| =     7.011596
 CELL| Vector c [angstrom]:       0.000     0.000     7.012   |c| =     7.011596
 CELL| Angle (b,c), alpha [degree]:                                    90.000000
 CELL| Angle (a,c), beta  [degree]:                                    90.000000
 CELL| Angle (a,b), gamma [degree]:                                    90.000000
 CELL| Numerically orthorhombic:                                             YES
 CELL| Periodicity                                                           XYZ

 CELL_REF| Volume [angstrom^3]:                                       344.707437
 CELL_REF| Vector a [angstrom     7.012     0.000     0.000   |a| =     7.011596
 CELL_REF| Vector b [angstrom     0.000     7.012     0.000   |b| =     7.011596
 CELL_REF| Vector c [angstrom     0.000     0.000     7.012   |c| =     7.011596
 CELL_REF| Angle (b,c), alpha [degree]:                                90.000000
 CELL_REF| Angle (a,c), beta  [degree]:                                90.000000
 CELL_REF| Angle (a,b), gamma [degree]:                                90.000000
 CELL_REF| Numerically orthorhombic:                                         YES
 CELL_REF| Periodicity                                                       XYZ

 *******************************************************************************
 *******************************************************************************
 **                                                                           **
 **     #####                         ##              ##                      **
 **    ##   ##            ##          ##              ##                      **
 **   ##     ##                       ##            ######                    **
 **   ##     ##  ##   ##  ##   #####  ##  ##   ####   ##    #####    #####    **
 **   ##     ##  ##   ##  ##  ##      ## ##   ##      ##   ##   ##  ##   ##   **
 **   ##  ## ##  ##   ##  ##  ##      ####     ###    ##   ######   ######    **
 **    ##  ###   ##   ##  ##  ##      ## ##      ##   ##   ##       ##        **
 **     #######   #####   ##   #####  ##  ##  ####    ##    #####   ##        **
 **           ##                                                    ##        **
 **                                                                           **
 **                                                ... make the atoms dance   **
 **                                                                           **
 **            Copyright (C) by CP2K developers group (2000-2022)             **
 **                      J. Chem. Phys. 152, 194103 (2020)                    **
 **                                                                           **
 *******************************************************************************

 DFT| Spin unrestricted (spin-polarized) Kohn-Sham calculation               UKS
 DFT| Multiplicity                                                            65
 DFT| Number of spin states                                                    2
 DFT| Charge                                                                   0
 DFT| Self-interaction correction (SIC)                                       NO
 DFT| Cutoffs: density                                              1.000000E-10
 DFT|          gradient                                             1.000000E-10
 DFT|          tau                                                  1.000000E-10
 DFT|          cutoff_smoothing_range                               0.000000E+00
 DFT| XC density smoothing                                                  NONE
 DFT| XC derivatives                                                          PW

 FUNCTIONAL| PBE:
 FUNCTIONAL| J.P.Perdew, K.Burke, M.Ernzerhof, Phys. Rev. Letter, vol. 77, n 18,
 FUNCTIONAL|  pp. 3865-3868, (1996){spin polarized}                             


 QS| Method:                                                                 GPW
 QS| Density plane wave grid type                        NON-SPHERICAL FULLSPACE
 QS| Number of grid levels:                                                    5
 QS| Density cutoff [a.u.]:                                                300.0
 QS| Multi grid cutoff [a.u.]: 1) grid level                               300.0
 QS|                           2) grid level                               100.0
 QS|                           3) grid level                                33.3
 QS|                           4) grid level                                11.1
 QS|                           5) grid level                                 3.7
 QS| Grid level progression factor:                                          3.0
 QS| Relative density cutoff [a.u.]:                                        30.0
 QS| Interaction thresholds: eps_pgf_orb:                                1.0E-06
 QS|                         eps_filter_matrix:                          0.0E+00
 QS|                         eps_core_charge:                            1.0E-14
 QS|                         eps_rho_gspace:                             1.0E-12
 QS|                         eps_rho_rspace:                             1.0E-12
 QS|                         eps_gvg_rspace:                             1.0E-06
 QS|                         eps_ppl:                                    1.0E-02
 QS|                         eps_ppnl:                                   1.0E-08


 ATOMIC KIND INFORMATION

  1. Atomic kind: Ni                                    Number of atoms:      32

     Orbital Basis Set                                        DZVP-MOLOPT-SR-GTH

       Number of orbital shell sets:                                           1
       Number of orbital shells:                                               8
       Number of primitive Cartesian functions:                                6
       Number of Cartesian basis functions:                                   31
       Number of spherical basis functions:                                   26
       Norm type:                                                              2

       Normalised Cartesian orbitals:

                        Set   Shell   Orbital            Exponent    Coefficient

                          1       1    2s               10.077428      -0.684558
                                                         5.847736      -0.844524
                                                         2.494033       1.088856
                                                         0.988355       0.395503
                                                         0.344978       0.010224
                                                         0.099466      -0.003250

                          1       2    3s               10.077428       0.096747
                                                         5.847736       0.162504
                                                         2.494033      -0.297192
                                                         0.988355      -0.319752
                                                         0.344978       0.088318
                                                         0.099466       0.118587

                          1       3    4s               10.077428       0.036437
                                                         5.847736      -0.381480
                                                         2.494033       0.003759
                                                         0.988355      -1.048256
                                                         0.344978       0.855825
                                                         0.099466      -0.176350

                          1       4    3px              10.077428      -3.133913
                                                         5.847736       3.027656
                                                         2.494033       2.353227
                                                         0.988355       0.554184
                                                         0.344978       0.019462
                                                         0.099466      -0.000291
                          1       4    3py              10.077428      -3.133913
                                                         5.847736       3.027656
                                                         2.494033       2.353227
                                                         0.988355       0.554184
                                                         0.344978       0.019462
                                                         0.099466      -0.000291
                          1       4    3pz              10.077428      -3.133913
                                                         5.847736       3.027656
                                                         2.494033       2.353227
                                                         0.988355       0.554184
                                                         0.344978       0.019462
                                                         0.099466      -0.000291

                          1       5    4px              10.077428      -0.112729
                                                         5.847736      -0.114008
                                                         2.494033      -0.347303
                                                         0.988355      -0.110323
                                                         0.344978       0.154096
                                                         0.099466       0.058386
                          1       5    4py              10.077428      -0.112729
                                                         5.847736      -0.114008
                                                         2.494033      -0.347303
                                                         0.988355      -0.110323
                                                         0.344978       0.154096
                                                         0.099466       0.058386
                          1       5    4pz              10.077428      -0.112729
                                                         5.847736      -0.114008
                                                         2.494033      -0.347303
                                                         0.988355      -0.110323
                                                         0.344978       0.154096
                                                         0.099466       0.058386

                          1       6    4dx2             10.077428       8.232726
                                                         5.847736       9.105758
                                                         2.494033       2.849835
                                                         0.988355       0.554319
                                                         0.344978       0.067245
                                                         0.099466       0.001940
                          1       6    4dxy             10.077428      14.259500
                                                         5.847736      15.771636
                                                         2.494033       4.936060
                                                         0.988355       0.960109
                                                         0.344978       0.116472
                                                         0.099466       0.003360
                          1       6    4dxz             10.077428      14.259500
                                                         5.847736      15.771636
                                                         2.494033       4.936060
                                                         0.988355       0.960109
                                                         0.344978       0.116472
                                                         0.099466       0.003360
                          1       6    4dy2             10.077428       8.232726
                                                         5.847736       9.105758
                                                         2.494033       2.849835
                                                         0.988355       0.554319
                                                         0.344978       0.067245
                                                         0.099466       0.001940
                          1       6    4dyz             10.077428      14.259500
                                                         5.847736      15.771636
                                                         2.494033       4.936060
                                                         0.988355       0.960109
                                                         0.344978       0.116472
                                                         0.099466       0.003360
                          1       6    4dz2             10.077428       8.232726
                                                         5.847736       9.105758
                                                         2.494033       2.849835
                                                         0.988355       0.554319
                                                         0.344978       0.067245
                                                         0.099466       0.001940

                          1       7    5dx2             10.077428      -2.715373
                                                         5.847736      -4.020640
                                                         2.494033      -1.397569
                                                         0.988355      -0.076143
                                                         0.344978       0.033435
                                                         0.099466       0.026032
                          1       7    5dxy             10.077428      -4.703164
                                                         5.847736      -6.963952
                                                         2.494033      -2.420661
                                                         0.988355      -0.131883
                                                         0.344978       0.057911
                                                         0.099466       0.045088
                          1       7    5dxz             10.077428      -4.703164
                                                         5.847736      -6.963952
                                                         2.494033      -2.420661
                                                         0.988355      -0.131883
                                                         0.344978       0.057911
                                                         0.099466       0.045088
                          1       7    5dy2             10.077428      -2.715373
                                                         5.847736      -4.020640
                                                         2.494033      -1.397569
                                                         0.988355      -0.076143
                                                         0.344978       0.033435
                                                         0.099466       0.026032
                          1       7    5dyz             10.077428      -4.703164
                                                         5.847736      -6.963952
                                                         2.494033      -2.420661
                                                         0.988355      -0.131883
                                                         0.344978       0.057911
                                                         0.099466       0.045088
                          1       7    5dz2             10.077428      -2.715373
                                                         5.847736      -4.020640
                                                         2.494033      -1.397569
                                                         0.988355      -0.076143
                                                         0.344978       0.033435
                                                         0.099466       0.026032

                          1       8    5fx3             10.077428      -0.467694
                                                         5.847736       0.618100
                                                         2.494033       0.066069
                                                         0.988355       0.262898
                                                         0.344978       0.004720
                                                         0.099466       0.007748
                          1       8    5fx2y            10.077428      -1.045795
                                                         5.847736       1.382114
                                                         2.494033       0.147734
                                                         0.988355       0.587859
                                                         0.344978       0.010555
                                                         0.099466       0.017325
                          1       8    5fx2z            10.077428      -1.045795
                                                         5.847736       1.382114
                                                         2.494033       0.147734
                                                         0.988355       0.587859
                                                         0.344978       0.010555
                                                         0.099466       0.017325
                          1       8    5fxy2            10.077428      -1.045795
                                                         5.847736       1.382114
                                                         2.494033       0.147734
                                                         0.988355       0.587859
                                                         0.344978       0.010555
                                                         0.099466       0.017325
                          1       8    5fxyz            10.077428      -1.811371
                                                         5.847736       2.393892
                                                         2.494033       0.255883
                                                         0.988355       1.018201
                                                         0.344978       0.018282
                                                         0.099466       0.030008
                          1       8    5fxz2            10.077428      -1.045795
                                                         5.847736       1.382114
                                                         2.494033       0.147734
                                                         0.988355       0.587859
                                                         0.344978       0.010555
                                                         0.099466       0.017325
                          1       8    5fy3             10.077428      -0.467694
                                                         5.847736       0.618100
                                                         2.494033       0.066069
                                                         0.988355       0.262898
                                                         0.344978       0.004720
                                                         0.099466       0.007748
                          1       8    5fy2z            10.077428      -1.045795
                                                         5.847736       1.382114
                                                         2.494033       0.147734
                                                         0.988355       0.587859
                                                         0.344978       0.010555
                                                         0.099466       0.017325
                          1       8    5fyz2            10.077428      -1.045795
                                                         5.847736       1.382114
                                                         2.494033       0.147734
                                                         0.988355       0.587859
                                                         0.344978       0.010555
                                                         0.099466       0.017325
                          1       8    5fz3             10.077428      -0.467694
                                                         5.847736       0.618100
                                                         2.494033       0.066069
                                                         0.988355       0.262898
                                                         0.344978       0.004720
                                                         0.099466       0.007748

       Atomic covalent radius [Angstrom]:                                  1.150

       Atomic van der Waals radius [Angstrom]:                             1.630

     GTH Potential information for                                   GTH-PBE-q18

       Description:                       Goedecker-Teter-Hutter pseudopotential
                                           Goedecker et al., PRB 54, 1703 (1996)
                                          Hartwigsen et al., PRB 58, 3641 (1998)
                                                      Krack, TCA 114, 145 (2005)

       Gaussian exponent of the core charge distribution:               4.081633
       Electronic configuration (s p d ...):                           4   6   8

       Parameters of the local part of the GTH pseudopotential:

                          rloc        C1          C2          C3          C4
                        0.350000    2.102166    0.648484

       Parameters of the non-local part of the GTH pseudopotential:

                   l      r(l)      h(i,j,l)

                   0    0.261295    0.622658    9.970227
                                    9.970227  -12.871507
                   1    0.224253  -11.142708   12.429566
                                   12.429566  -14.706861
                   2    0.215348  -12.628146


 MOLECULE KIND INFORMATION


 All atoms are their own molecule, skipping detailed information


 TOTAL NUMBERS AND MAXIMUM NUMBERS

  Total number of            - Atomic kinds:                                   1
                             - Atoms:                                         32
                             - Shell sets:                                    32
                             - Shells:                                       256
                             - Primitive Cartesian functions:                192
                             - Cartesian basis functions:                    992
                             - Spherical basis functions:                    832

  Maximum angular momentum of- Orbital basis functions:                        3
                             - Local part of the GTH pseudopotential:          2
                             - Non-local part of the GTH pseudopotential:      3


 MODULE QUICKSTEP: ATOMIC COORDINATES IN ANGSTROM

   Atom Kind Element         X             Y             Z       Z(eff)     Mass
      1    1 Ni   28      0.000000      0.000000      0.000000  18.0000  58.6934
      2    1 Ni   28      0.000000      1.752900      1.752900  18.0000  58.6934
      3    1 Ni   28      1.752900      0.000000      1.752900  18.0000  58.6934
      4    1 Ni   28      1.752900      1.752900      0.000000  18.0000  58.6934
      5    1 Ni   28      3.505798      0.000000      0.000000  18.0000  58.6934
      6    1 Ni   28      3.505798      1.752900      1.752900  18.0000  58.6934
      7    1 Ni   28      5.258698      0.000000      1.752900  18.0000  58.6934
      8    1 Ni   28      5.258698      1.752900      0.000000  18.0000  58.6934
      9    1 Ni   28      0.000000      3.505798      0.000000  18.0000  58.6934
     10    1 Ni   28      0.000000      5.258698      1.752900  18.0000  58.6934
     11    1 Ni   28      1.752900      3.505798      1.752900  18.0000  58.6934
     12    1 Ni   28      1.752900      5.258698      0.000000  18.0000  58.6934
     13    1 Ni   28      3.505798      3.505798      0.000000  18.0000  58.6934
     14    1 Ni   28      3.505798      5.258698      1.752900  18.0000  58.6934
     15    1 Ni   28      5.258698      3.505798      1.752900  18.0000  58.6934
     16    1 Ni   28      5.258698      5.258698      0.000000  18.0000  58.6934
     17    1 Ni   28      0.000000      0.000000      3.505798  18.0000  58.6934
     18    1 Ni   28      0.000000      1.752900      5.258698  18.0000  58.6934
     19    1 Ni   28      1.752900      0.000000      5.258698  18.0000  58.6934
     20    1 Ni   28      1.752900      1.752900      3.505798  18.0000  58.6934
     21    1 Ni   28      3.505798      0.000000      3.505798  18.0000  58.6934
     22    1 Ni   28      3.505798      1.752900      5.258698  18.0000  58.6934
     23    1 Ni   28      5.258698      0.000000      5.258698  18.0000  58.6934
     24    1 Ni   28      5.258698      1.752900      3.505798  18.0000  58.6934
     25    1 Ni   28      0.000000      3.505798      3.505798  18.0000  58.6934
     26    1 Ni   28      0.000000      5.258698      5.258698  18.0000  58.6934
     27    1 Ni   28      1.752900      3.505798      5.258698  18.0000  58.6934
     28    1 Ni   28      1.752900      5.258698      3.505798  18.0000  58.6934
     29    1 Ni   28      3.505798      3.505798      3.505798  18.0000  58.6934
     30    1 Ni   28      3.505798      5.258698      5.258698  18.0000  58.6934
     31    1 Ni   28      5.258698      3.505798      5.258698  18.0000  58.6934
     32    1 Ni   28      5.258698      5.258698      3.505798  18.0000  58.6934



 SCF PARAMETERS         Density guess:                                    ATOMIC
                        --------------------------------------------------------
                        max_scf:                                             500
                        max_scf_history:                                       0
                        max_diis:                                              4
                        --------------------------------------------------------
                        eps_scf:                                        1.00E-08
                        eps_scf_history:                                0.00E+00
                        eps_diis:                                       1.00E-01
                        eps_eigval:                                     1.00E-05
                        --------------------------------------------------------
                        level_shift [a.u.]:                             0.000000
                        added MOs                                        30   30
                        --------------------------------------------------------
                        Mixing method:                            BROYDEN_MIXING
                                                charge density mixing in g-space
                        --------------------------------------------------------
                        Smear method:                                FERMI_DIRAC
                        Electronic temperature [K]:                        300.0
                        Electronic temperature [a.u.]:                  9.50E-04
                        Accuracy threshold:                             1.00E-10
                        --------------------------------------------------------
                        No outer SCF

 PW_GRID| Information for grid number                                          1
 PW_GRID| Grid distributed over                                   128 processors
 PW_GRID| Real space group dimensions                                     8   16
 PW_GRID| the grid is blocked:                                               YES
 PW_GRID| Cutoff [a.u.]                                                    300.0
 PW_GRID| spherical cutoff:                                                   NO
 PW_GRID|   Bounds   1            -54      53                Points:         108
 PW_GRID|   Bounds   2            -54      53                Points:         108
 PW_GRID|   Bounds   3            -54      53                Points:         108
 PW_GRID| Volume element (a.u.^3)  0.1847E-02     Volume (a.u.^3)      2326.2011
 PW_GRID| Grid span                                                    FULLSPACE
 PW_GRID|   Distribution                         Average         Max         Min
 PW_GRID|   G-Vectors                             9841.5       10584        8424
 PW_GRID|   G-Rays                                  91.1          98          78
 PW_GRID|   Real Space Points                     9841.5       10584        8424

 PW_GRID| Information for grid number                                          2
 PW_GRID| Number of the reference grid                                         1
 PW_GRID| Grid distributed over                                   128 processors
 PW_GRID| Real space group dimensions                                     8   16
 PW_GRID| the grid is blocked:                                                NO
 PW_GRID| Cutoff [a.u.]                                                    100.0
 PW_GRID| spherical cutoff:                                                   NO
 PW_GRID|   Bounds   1            -30      29                Points:          60
 PW_GRID|   Bounds   2            -30      29                Points:          60
 PW_GRID|   Bounds   3            -30      29                Points:          60
 PW_GRID| Volume element (a.u.^3)  0.1077E-01     Volume (a.u.^3)      2326.2011
 PW_GRID| Grid span                                                    FULLSPACE
 PW_GRID|   Distribution                         Average         Max         Min
 PW_GRID|   G-Vectors                             1687.5        5880           0
 PW_GRID|   G-Rays                                  28.1          98           0
 PW_GRID|   Real Space Points                     1687.5        1920        1260

 PW_GRID| Information for grid number                                          3
 PW_GRID| Number of the reference grid                                         1
 PW_GRID| Grid distributed over                                   128 processors
 PW_GRID| Real space group dimensions                                     8   16
 PW_GRID| the grid is blocked:                                                NO
 PW_GRID| Cutoff [a.u.]                                                     33.3
 PW_GRID| spherical cutoff:                                                   NO
 PW_GRID|   Bounds   1            -18      17                Points:          36
 PW_GRID|   Bounds   2            -18      17                Points:          36
 PW_GRID|   Bounds   3            -18      17                Points:          36
 PW_GRID| Volume element (a.u.^3)  0.4986E-01     Volume (a.u.^3)      2326.2011
 PW_GRID| Grid span                                                    FULLSPACE
 PW_GRID|   Distribution                         Average         Max         Min
 PW_GRID|   G-Vectors                              364.5        3528           0
 PW_GRID|   G-Rays                                  10.1          98           0
 PW_GRID|   Real Space Points                      364.5         540         288

 PW_GRID| Information for grid number                                          4
 PW_GRID| Number of the reference grid                                         1
 PW_GRID| Grid distributed over                                   128 processors
 PW_GRID| Real space group dimensions                                     8   16
 PW_GRID| the grid is blocked:                                                NO
 PW_GRID| Cutoff [a.u.]                                                     11.1
 PW_GRID| spherical cutoff:                                                   NO
 PW_GRID|   Bounds   1            -10       9                Points:          20
 PW_GRID|   Bounds   2            -10       9                Points:          20
 PW_GRID|   Bounds   3            -10       9                Points:          20
 PW_GRID| Volume element (a.u.^3)  0.2908         Volume (a.u.^3)      2326.2011
 PW_GRID| Grid span                                                    FULLSPACE
 PW_GRID|   Distribution                         Average         Max         Min
 PW_GRID|   G-Vectors                               62.5        1400           0
 PW_GRID|   G-Rays                                   3.1          70           0
 PW_GRID|   Real Space Points                       62.5         120          40

 PW_GRID| Information for grid number                                          5
 PW_GRID| Number of the reference grid                                         1
 PW_GRID| Grid distributed over                                   128 processors
 PW_GRID| Real space group dimensions                                     8   16
 PW_GRID| the grid is blocked:                                                NO
 PW_GRID| Cutoff [a.u.]                                                      3.7
 PW_GRID| spherical cutoff:                                                   NO
 PW_GRID|   Bounds   1             -6       5                Points:          12
 PW_GRID|   Bounds   2             -6       5                Points:          12
 PW_GRID|   Bounds   3             -6       5                Points:          12
 PW_GRID| Volume element (a.u.^3)   1.346         Volume (a.u.^3)      2326.2011
 PW_GRID| Grid span                                                    FULLSPACE
 PW_GRID|   Distribution                         Average         Max         Min
 PW_GRID|   G-Vectors                               13.5         432           0
 PW_GRID|   G-Rays                                   1.1          36           0
 PW_GRID|   Real Space Points                       13.5          24           0

 POISSON| Solver                                                        PERIODIC
 POISSON| Periodicity                                                        XYZ

 RS_GRID| Information for grid number                                          1
 RS_GRID|   Bounds   1            -54      53                Points:         108
 RS_GRID|   Bounds   2            -54      53                Points:         108
 RS_GRID|   Bounds   3            -54      53                Points:         108
 RS_GRID| Real space distribution over                                  8 groups
 RS_GRID| Real space distribution along direction                              2
 RS_GRID| Border size                                                         28
 RS_GRID| Real space distribution over                                 16 groups
 RS_GRID| Real space distribution along direction                              3
 RS_GRID| Border size                                                         28
 RS_GRID|   Distribution                         Average         Max         Min
 RS_GRID|   Planes                                  69.5          70          69
 RS_GRID|   Distribution                         Average         Max         Min
 RS_GRID|   Planes                                  62.8          63          62

 RS_GRID| Information for grid number                                          2
 RS_GRID|   Bounds   1            -30      29                Points:          60
 RS_GRID|   Bounds   2            -30      29                Points:          60
 RS_GRID|   Bounds   3            -30      29                Points:          60
 RS_GRID| Real space fully replicated
 RS_GRID| Group size                                                           1

 RS_GRID| Information for grid number                                          3
 RS_GRID|   Bounds   1            -18      17                Points:          36
 RS_GRID|   Bounds   2            -18      17                Points:          36
 RS_GRID|   Bounds   3            -18      17                Points:          36
 RS_GRID| Real space fully replicated
 RS_GRID| Group size                                                           1

 RS_GRID| Information for grid number                                          4
 RS_GRID|   Bounds   1            -10       9                Points:          20
 RS_GRID|   Bounds   2            -10       9                Points:          20
 RS_GRID|   Bounds   3            -10       9                Points:          20
 RS_GRID| Real space fully replicated
 RS_GRID| Group size                                                           1

 RS_GRID| Information for grid number                                          5
 RS_GRID|   Bounds   1             -6       5                Points:          12
 RS_GRID|   Bounds   2             -6       5                Points:          12
 RS_GRID|   Bounds   3             -6       5                Points:          12
 RS_GRID| Real space fully replicated
 RS_GRID| Group size                                                           1

 Spin 1

 Number of electrons:                                                        320
 Number of occupied orbitals:                                                320
 Number of molecular orbitals:                                               350

 Spin 2

 Number of electrons:                                                        256
 Number of occupied orbitals:                                                256
 Number of molecular orbitals:                                               286

 Number of orbital functions:                                                832
 Number of independent orbital functions:                                    832

 Extrapolation method: initial_guess

 Atomic guess: The first density matrix is obtained in terms of atomic orbitals
               and electronic configurations assigned to each atomic kind

 Guess for atomic kind: Ni

 Electronic structure
    Total number of core electrons                                         10.00
    Total number of valence electrons                                      18.00
    Total number of electrons                                              28.00
    Multiplicity                                                         triplet
    Alpha Electrons
    S   [  1.00  1.00] 1.00  1.00
    P   [  3.00] 3.00
    D      5.00
    Beta Electrons
    S   [  1.00  1.00] 1.00  1.00
    P   [  3.00] 3.00
    D      3.00


 *******************************************************************************
                  Iteration          Convergence                     Energy [au]
 *******************************************************************************
                          1         1.61955                    -167.102733612646
                          2         17.9576                    -156.964728082342
                          3         2.81889                    -168.347679739779
                          4        0.300879                    -168.639029543130
                          5        0.133614                    -168.643718125190
                          6        0.642384E-01                -168.645928334381
                          7        0.411618E-01                -168.646613747745
                          8        0.978516E-02                -168.646711132537
                          9        0.508781E-01                -168.646571314898
                         10        0.138948E-01                -168.646700563277
                         11        0.138660E-01                -168.646700237384
                         12        0.629414E-02                -168.646712261956
                         13        0.566241E-02                -168.646713151996
                         14        0.495313E-02                -168.646714117454
                         15        0.421991E-02                -168.646714987798
                         16        0.338228E-02                -168.646715812720
                         17        0.416465E-02                -168.646716816326
                         18        0.344616E-02                -168.646717043212
                         19        0.330991E-02                -168.646717101846
                         20        0.313342E-02                -168.646717172930
                         21        0.281829E-02                -168.646717286496
                         22        0.848656E-03                -168.646717732580
                         23        0.109512E-02                -168.646717723740
                         24        0.104995E-02                -168.646717732012
                         25        0.102855E-02                -168.646717736906
                         26        0.100245E-02                -168.646717743176
                         27        0.676032E-03                -168.646717806927
                         28        0.602106E-03                -168.646717861030
                         29        0.625282E-03                -168.646717860099
                         30        0.624945E-03                -168.646717860052
                         31        0.623853E-03                -168.646717860100
                         32        0.624150E-03                -168.646717860067
                         33        0.237289E-03                -168.646717879062
                         34        0.180801E-03                -168.646717882280
                         35        0.181452E-03                -168.646717882256
                         36        0.181661E-03                -168.646717882245
                         37        0.181696E-03                -168.646717882243
                         38        0.180660E-03                -168.646717882285
                         39        0.167278E-03                -168.646717884960
                         40        0.108251E-03                -168.646717886084
                         41        0.108355E-03                -168.646717886083
                         42        0.108427E-03                -168.646717886083
                         43        0.108486E-03                -168.646717886083
                         44        0.108485E-03                -168.646717886083
                         45        0.694677E-04                -168.646717886478
                         46        0.318666E-04                -168.646717886752
                         47        0.318508E-04                -168.646717886753
                         48        0.318379E-04                -168.646717886753
                         49        0.318252E-04                -168.646717886753
                         50        0.320703E-04                -168.646717886751
 No convergence within maximum number of iterations 

 Energy components [Hartree]           Total Energy ::         -168.646717886751
                                        Band Energy ::          -26.584923955507
                                     Kinetic Energy ::           97.352330251814
                                   Potential Energy ::         -265.999048138565
                                      Virial (-V/T) ::            2.732333652934
                                        Core Energy ::         -299.595021414610
                                          XC Energy ::          -16.265210292971
                                     Coulomb Energy ::          147.213513820830
                       Total Pseudopotential Energy ::         -397.033695283644
                       Local Pseudopotential Energy ::         -362.697061997994
                    Nonlocal Pseudopotential Energy ::          -34.336633285650
                                        Confinement ::            0.863436172188

 Orbital energies  State     Spin  L     Occupation   Energy[a.u.]    Energy[eV]

                       1    alpha  0          1.000      -4.198782   -114.254674
                       2    alpha  0          1.000      -0.185813     -5.056229
                       1     beta  0          1.000      -4.107299   -111.765292
                       2     beta  0          1.000      -0.171331     -4.662162

                       1    alpha  1          3.000      -2.604156    -70.862688
                       1     beta  1          3.000      -2.515143    -68.440529

                       1    alpha  2          5.000      -0.348813     -9.491687
                       1     beta  2          3.000      -0.273245     -7.435375


 Total Electron Density at R=0:                                         0.030313

 Spin 1
 Re-scaling the density matrix to get the right number of electrons for spin 1
                  # Electrons              Trace(P)               Scaling factor
                          320               320.032                        1.000

 Spin 2
 Re-scaling the density matrix to get the right number of electrons for spin 2
                  # Electrons              Trace(P)               Scaling factor
                          256               256.035                        1.000


 SCF WAVEFUNCTION OPTIMIZATION

  Step     Update method      Time    Convergence         Total energy    Change
  ------------------------------------------------------------------------------
     1 NoMix/Diag. 0.50E-01    1.8     0.80642385     -5430.5035547420 -5.43E+03
     2 Broy./Diag. 0.50E-01    0.5     0.02179296     -5363.0301803433  6.75E+01
     3 Broy./Diag. 0.50E-01    0.5     0.02177876     -5386.0226395756 -2.30E+01
     4 Broy./Diag. 0.50E-01    0.5     0.12001666     -5412.2209333054 -2.62E+01
     5 Broy./Diag. 0.50E-01    0.5     0.03422532     -5434.1668798236 -2.19E+01
     6 Broy./Diag. 0.50E-01    0.5     0.19000757     -5423.2756239638  1.09E+01
     7 Broy./Diag. 0.50E-01    0.5     0.01023662     -5396.5326905873  2.67E+01
     8 Broy./Diag. 0.50E-01    0.5     0.05074502     -5405.3467824084 -8.81E+00
     9 Broy./Diag. 0.50E-01    0.5     0.00264330     -5403.8116083790  1.54E+00
    10 Broy./Diag. 0.50E-01    0.5     0.00618841     -5404.3801431397 -5.69E-01
    11 Broy./Diag. 0.50E-01    0.5     0.03601521     -5408.4160575116 -4.04E+00
    12 Broy./Diag. 0.50E-01    0.5     0.00525037     -5416.4876962571 -8.07E+00
    13 Broy./Diag. 0.50E-01    0.5     0.00437065     -5415.5931224087  8.95E-01
    14 Broy./Diag. 0.50E-01    0.5     0.02064736     -5415.2840712765  3.09E-01
    15 Broy./Diag. 0.50E-01    0.5     0.00661419     -5417.6348290292 -2.35E+00
    16 Broy./Diag. 0.50E-01    0.5     0.00270301     -5418.7449672869 -1.11E+00
    17 Broy./Diag. 0.50E-01    0.5     0.00963665     -5419.1993048603 -4.54E-01
    18 Broy./Diag. 0.50E-01    0.5     0.02010546     -5425.9495497794 -6.75E+00
    19 Broy./Diag. 0.50E-01    0.5     0.02559211     -5429.8287729277 -3.88E+00
    20 Broy./Diag. 0.50E-01    0.5     0.04612379     -5428.5551587391  1.27E+00
    21 Broy./Diag. 0.50E-01    0.5     0.00511709     -5415.6281326878  1.29E+01
    22 Broy./Diag. 0.50E-01    0.5     0.00290555     -5417.4535975581 -1.83E+00
    23 Broy./Diag. 0.50E-01    0.5     0.00631639     -5414.4043551512  3.05E+00
    24 Broy./Diag. 0.50E-01    0.5     0.00610698     -5410.4889613846  3.92E+00
    25 Broy./Diag. 0.50E-01    0.5     0.00259855     -5411.3782566411 -8.89E-01
    26 Broy./Diag. 0.50E-01    0.5     0.00826517     -5410.1990243379  1.18E+00
    27 Broy./Diag. 0.50E-01    0.6     0.00394007     -5415.8135262356 -5.61E+00
    28 Broy./Diag. 0.50E-01    0.5     0.01241193     -5416.4362073365 -6.23E-01
    29 Broy./Diag. 0.50E-01    0.5     0.00533435     -5422.3075292076 -5.87E+00
    30 Broy./Diag. 0.50E-01    0.5     0.00043042     -5424.3221709526 -2.01E+00
    31 Broy./Diag. 0.50E-01    0.5     0.00536382     -5424.4123773768 -9.02E-02
    32 Broy./Diag. 0.50E-01    0.5     0.02452776     -5421.4357451210  2.98E+00
    33 Broy./Diag. 0.50E-01    0.5     0.00400368     -5404.4640293376  1.70E+01
    34 Broy./Diag. 0.50E-01    0.5     0.00117922     -5401.2413242228  3.22E+00
    35 Broy./Diag. 0.50E-01    0.5     0.00117169     -5402.1191694808 -8.78E-01
    36 Broy./Diag. 0.50E-01    0.5     0.00429062     -5402.6676588507 -5.48E-01
    37 Broy./Diag. 0.50E-01    0.5     0.00438636     -5407.0385613103 -4.37E+00
    38 Broy./Diag. 0.50E-01    0.5     0.00774703     -5410.7457012535 -3.71E+00
    39 Broy./Diag. 0.50E-01    0.5     0.00513557     -5415.5408702452 -4.80E+00
    40 Broy./Diag. 0.50E-01    0.5     0.01138622     -5413.7876669079  1.75E+00
    41 Broy./Diag. 0.50E-01    0.5     0.00163671     -5419.6750398508 -5.89E+00
    42 Broy./Diag. 0.50E-01    0.5     0.00201605     -5419.8145902072 -1.40E-01
    43 Broy./Diag. 0.50E-01    0.5     0.01095087     -5419.5941656242  2.20E-01
    44 Broy./Diag. 0.50E-01    0.5     0.00483138     -5420.8698153433 -1.28E+00
    45 Broy./Diag. 0.50E-01    0.6     0.00376086     -5419.9233750876  9.46E-01
    46 Broy./Diag. 0.50E-01    0.5     0.00074787     -5420.9398149916 -1.02E+00
    47 Broy./Diag. 0.50E-01    0.5     0.00416456     -5420.8362264410  1.04E-01
    48 Broy./Diag. 0.50E-01    0.5     0.00367983     -5421.4502473409 -6.14E-01
    49 Broy./Diag. 0.50E-01    0.5     0.02328978     -5423.3109471810 -1.86E+00
    50 Broy./Diag. 0.50E-01    0.5     0.00665973     -5420.0182857627  3.29E+00
    51 Broy./Diag. 0.50E-01    0.5     0.00972575     -5419.6705452377  3.48E-01
    52 Broy./Diag. 0.50E-01    0.5     0.00745326     -5419.3484537236  3.22E-01
    53 Broy./Diag. 0.50E-01    0.5     0.00477211     -5419.4729041133 -1.24E-01
    54 Broy./Diag. 0.50E-01    0.5     0.00330636     -5416.9345069003  2.54E+00
    55 Broy./Diag. 0.50E-01    0.5     0.01653078     -5417.0915562864 -1.57E-01
    56 Broy./Diag. 0.50E-01    0.5     0.00764025     -5420.7939611950 -3.70E+00
    57 Broy./Diag. 0.50E-01    0.5     0.01595798     -5418.7112409240  2.08E+00
    58 Broy./Diag. 0.50E-01    0.5     0.01220751     -5413.9410155659  4.77E+00
    59 Broy./Diag. 0.50E-01    0.5     0.01686102     -5416.9118260492 -2.97E+00
    60 Broy./Diag. 0.50E-01    0.5     0.01345303     -5415.1264364182  1.79E+00
    61 Broy./Diag. 0.50E-01    0.5     0.00325613     -5414.2720049696  8.54E-01
    62 Broy./Diag. 0.50E-01    0.5     0.00836844     -5412.6535865627  1.62E+00
    63 Broy./Diag. 0.50E-01    0.5     0.01048608     -5411.5692185265  1.08E+00
    64 Broy./Diag. 0.50E-01    0.5     0.02018635     -5411.1013253535  4.68E-01
    65 Broy./Diag. 0.50E-01    0.5     0.01825662     -5413.1373516631 -2.04E+00
    66 Broy./Diag. 0.50E-01    0.5     0.00790862     -5411.7370011852  1.40E+00
    67 Broy./Diag. 0.50E-01    0.5     0.02656292     -5412.3638141883 -6.27E-01
    68 Broy./Diag. 0.50E-01    0.5     0.00760088     -5421.6669075623 -9.30E+00
    69 Broy./Diag. 0.50E-01    0.5     0.00739540     -5420.7961640615  8.71E-01
    70 Broy./Diag. 0.50E-01    0.5     0.01332032     -5417.8925901069  2.90E+00
    71 Broy./Diag. 0.50E-01    0.5     0.01675245     -5417.7594795462  1.33E-01
    72 Broy./Diag. 0.50E-01    0.5     0.01514735     -5420.8957233263 -3.14E+00
    73 Broy./Diag. 0.50E-01    0.5     0.00424428     -5417.2692520970  3.63E+00
    74 Broy./Diag. 0.50E-01    0.5     0.00407980     -5417.8156420133 -5.46E-01
    75 Broy./Diag. 0.50E-01    0.5     0.03017723     -5417.0780359123  7.38E-01
    76 Broy./Diag. 0.50E-01    0.5     0.00665869     -5410.5908627253  6.49E+00
    77 Broy./Diag. 0.50E-01    0.5     0.00302753     -5411.7315187184 -1.14E+00
    78 Broy./Diag. 0.50E-01    0.5     0.01293077     -5412.1211383072 -3.90E-01
    79 Broy./Diag. 0.50E-01    0.5     0.03443633     -5407.4465410641  4.67E+00
    80 Broy./Diag. 0.50E-01    0.5     0.02503724     -5410.5988653192 -3.15E+00
    81 Broy./Diag. 0.50E-01    0.5     0.02895682     -5411.6356553607 -1.04E+00
    82 Broy./Diag. 0.50E-01    0.6     0.03615408     -5411.8738690602 -2.38E-01
    83 Broy./Diag. 0.50E-01    0.5     0.03212380     -5418.9524564792 -7.08E+00
    84 Broy./Diag. 0.50E-01    0.5     0.01221387     -5411.7636861371  7.19E+00
    85 Broy./Diag. 0.50E-01    0.5     0.01158694     -5411.8061683085 -4.25E-02
    86 Broy./Diag. 0.50E-01    0.5     0.00333288     -5411.8213503660 -1.52E-02
    87 Broy./Diag. 0.50E-01    0.5     0.01682705     -5411.9731390123 -1.52E-01
    88 Broy./Diag. 0.50E-01    0.5     0.01627601     -5412.7848611106 -8.12E-01
    89 Broy./Diag. 0.50E-01    0.5     0.00229689     -5410.9847213840  1.80E+00
    90 Broy./Diag. 0.50E-01    0.5     0.00827493     -5411.7680026570 -7.83E-01
    91 Broy./Diag. 0.50E-01    0.5     0.01454161     -5413.1067578454 -1.34E+00
    92 Broy./Diag. 0.50E-01    0.5     0.02472638     -5413.4579375422 -3.51E-01
    93 Broy./Diag. 0.50E-01    0.5     0.02742209     -5422.0977198459 -8.64E+00
    94 Broy./Diag. 0.50E-01    0.5     0.03085105     -5413.2050046922  8.89E+00
    95 Broy./Diag. 0.50E-01    0.5     0.04433573     -5414.3840486394 -1.18E+00
    96 Broy./Diag. 0.50E-01    0.5     0.01015920     -5420.6352028136 -6.25E+00
    97 Broy./Diag. 0.50E-01    0.5     0.03258892     -5422.6983351065 -2.06E+00
    98 Broy./Diag. 0.50E-01    0.5     0.02354696     -5416.1979194937  6.50E+00
    99 Broy./Diag. 0.50E-01    0.5     0.03396248     -5412.4168264215  3.78E+00
   100 Broy./Diag. 0.50E-01    0.6     0.02210760     -5417.2424108508 -4.83E+00
   101 Broy./Diag. 0.50E-01    0.5     0.04782429     -5415.2568368059  1.99E+00
   102 Broy./Diag. 0.50E-01    0.5     0.03247824     -5416.3125749757 -1.06E+00
   103 Broy./Diag. 0.50E-01    0.5     0.01258843     -5417.9236087484 -1.61E+00
   104 Broy./Diag. 0.50E-01    0.5     0.03485475     -5419.6487786674 -1.73E+00
   105 Broy./Diag. 0.50E-01    0.5     0.02952104     -5425.7010388440 -6.05E+00
   106 Broy./Diag. 0.50E-01    0.5     0.02528239     -5423.5174861316  2.18E+00
   107 Broy./Diag. 0.50E-01    0.5     0.01038345     -5425.3822026663 -1.86E+00
   108 Broy./Diag. 0.50E-01    0.5     0.00823920     -5426.7689310578 -1.39E+00
   109 Broy./Diag. 0.50E-01    0.5     0.02411084     -5426.6445819550  1.24E-01
   110 Broy./Diag. 0.50E-01    0.5     0.03487410     -5426.7137827384 -6.92E-02
   111 Broy./Diag. 0.50E-01    0.5     0.02987226     -5421.8290036436  4.88E+00
   112 Broy./Diag. 0.50E-01    0.5     0.03814810     -5427.0959039108 -5.27E+00
   113 Broy./Diag. 0.50E-01    0.5     0.00686396     -5425.9039850693  1.19E+00
   114 Broy./Diag. 0.50E-01    0.5     0.00864351     -5424.4116780718  1.49E+00
   115 Broy./Diag. 0.50E-01    0.5     0.00253706     -5422.8418060185  1.57E+00
   116 Broy./Diag. 0.50E-01    0.5     0.00700509     -5422.4901751458  3.52E-01
   117 Broy./Diag. 0.50E-01    0.5     0.01792845     -5421.5058179473  9.84E-01
   118 Broy./Diag. 0.50E-01    0.5     0.00223664     -5421.0913631326  4.14E-01
   119 Broy./Diag. 0.50E-01    0.5     0.00332007     -5421.0995890303 -8.23E-03
   120 Broy./Diag. 0.50E-01    0.5     0.00287994     -5420.2525870290  8.47E-01
   121 Broy./Diag. 0.50E-01    0.5     0.00207622     -5418.5835778784  1.67E+00
   122 Broy./Diag. 0.50E-01    0.5     0.00612054     -5418.3820874867  2.01E-01
   123 Broy./Diag. 0.50E-01    0.5     0.00792942     -5417.8245574470  5.58E-01
   124 Broy./Diag. 0.50E-01    0.5     0.00449852     -5417.5086713343  3.16E-01
   125 Broy./Diag. 0.50E-01    0.5     0.00895201     -5417.4019779121  1.07E-01
   126 Broy./Diag. 0.50E-01    0.5     0.00409744     -5417.3766479968  2.53E-02
   127 Broy./Diag. 0.50E-01    0.5     0.00238811     -5417.3958051264 -1.92E-02
   128 Broy./Diag. 0.50E-01    0.5     0.00142838     -5417.3994108060 -3.61E-03
   129 Broy./Diag. 0.50E-01    0.5     0.00288171     -5417.3965242658  2.89E-03
   130 Broy./Diag. 0.50E-01    0.5     0.00167430     -5417.2869099299  1.10E-01
   131 Broy./Diag. 0.50E-01    0.5     0.00177116     -5417.3672803747 -8.04E-02
   132 Broy./Diag. 0.50E-01    0.5     0.00260148     -5417.3760031077 -8.72E-03
   133 Broy./Diag. 0.50E-01    0.5     0.00256292     -5417.4049408242 -2.89E-02
   134 Broy./Diag. 0.50E-01    0.5     0.00403669     -5417.4745229983 -6.96E-02
   135 Broy./Diag. 0.50E-01    0.5     0.00127813     -5417.3072370871  1.67E-01
   136 Broy./Diag. 0.50E-01    0.5     0.00097092     -5417.2563557683  5.09E-02
   137 Broy./Diag. 0.50E-01    0.6     0.00249857     -5417.2768604959 -2.05E-02
   138 Broy./Diag. 0.50E-01    0.5     0.00171362     -5417.2663772482  1.05E-02
   139 Broy./Diag. 0.50E-01    0.5     0.00198629     -5417.2199270095  4.65E-02
   140 Broy./Diag. 0.50E-01    0.5     0.00076740     -5417.1221498680  9.78E-02
   141 Broy./Diag. 0.50E-01    0.5     0.00228225     -5417.1576556725 -3.55E-02
   142 Broy./Diag. 0.50E-01    0.5     0.00362783     -5417.3362015078 -1.79E-01
   143 Broy./Diag. 0.50E-01    0.5     0.00159618     -5417.3957043011 -5.95E-02
   144 Broy./Diag. 0.50E-01    0.5     0.00165291     -5417.4889061429 -9.32E-02
   145 Broy./Diag. 0.50E-01    0.5     0.00216532     -5417.4223661758  6.65E-02
   146 Broy./Diag. 0.50E-01    0.5     0.00241840     -5417.5389013989 -1.17E-01
   147 Broy./Diag. 0.50E-01    0.5     0.00628177     -5417.6233760749 -8.45E-02
   148 Broy./Diag. 0.50E-01    0.5     0.00281497     -5417.6050561332  1.83E-02
   149 Broy./Diag. 0.50E-01    0.5     0.00134846     -5417.6697862005 -6.47E-02
   150 Broy./Diag. 0.50E-01    0.5     0.00357790     -5417.7683501937 -9.86E-02
   151 Broy./Diag. 0.50E-01    0.5     0.00313766     -5417.6991413778  6.92E-02
   152 Broy./Diag. 0.50E-01    0.5     0.00154904     -5417.8808824018 -1.82E-01
   153 Broy./Diag. 0.50E-01    0.5     0.00143946     -5417.8290927635  5.18E-02
   154 Broy./Diag. 0.50E-01    0.5     0.00084919     -5417.8382806694 -9.19E-03
   155 Broy./Diag. 0.50E-01    0.6     0.00053408     -5417.8423749868 -4.09E-03
   156 Broy./Diag. 0.50E-01    0.5     0.00058470     -5417.8310916964  1.13E-02
   157 Broy./Diag. 0.50E-01    0.5     0.00055973     -5417.8233657758  7.73E-03
   158 Broy./Diag. 0.50E-01    0.6     0.00035387     -5417.8184237653  4.94E-03
   159 Broy./Diag. 0.50E-01    0.7     0.00065080     -5417.8126088468  5.81E-03
   160 Broy./Diag. 0.50E-01    0.5     0.00123172     -5417.8122927797  3.16E-04
   161 Broy./Diag. 0.50E-01    0.5     0.00344492     -5417.8135636886 -1.27E-03
   162 Broy./Diag. 0.50E-01    0.5     0.00066943     -5417.8149189398 -1.36E-03
   163 Broy./Diag. 0.50E-01    0.5     0.00121943     -5417.8163094248 -1.39E-03
   164 Broy./Diag. 0.50E-01    0.5     0.00012494     -5417.8220158729 -5.71E-03
   165 Broy./Diag. 0.50E-01    0.5     0.00060781     -5417.8238110487 -1.80E-03
   166 Broy./Diag. 0.50E-01    0.5     0.00059668     -5417.8248151405 -1.00E-03
   167 Broy./Diag. 0.50E-01    0.5     0.00019716     -5417.8244732453  3.42E-04
   168 Broy./Diag. 0.50E-01    0.5     0.00077887     -5417.8295287255 -5.06E-03
   169 Broy./Diag. 0.50E-01    0.5     0.00124862     -5417.8301737473 -6.45E-04
   170 Broy./Diag. 0.50E-01    0.5     0.00069722     -5417.8338974315 -3.72E-03
   171 Broy./Diag. 0.50E-01    0.5     0.00063392     -5417.8379305281 -4.03E-03
   172 Broy./Diag. 0.50E-01    0.5     0.00053801     -5417.8149523079  2.30E-02
   173 Broy./Diag. 0.50E-01    0.6     0.00030637     -5417.8051856379  9.77E-03
   174 Broy./Diag. 0.50E-01    0.5     0.00065514     -5417.8083726723 -3.19E-03
   175 Broy./Diag. 0.50E-01    0.5     0.00122379     -5417.8132517081 -4.88E-03
   176 Broy./Diag. 0.50E-01    0.5     0.00045275     -5417.8094124596  3.84E-03
   177 Broy./Diag. 0.50E-01    0.5     0.00039193     -5417.8137922793 -4.38E-03
   178 Broy./Diag. 0.50E-01    0.5     0.00027059     -5417.8160749543 -2.28E-03
   179 Broy./Diag. 0.50E-01    0.5     0.00089447     -5417.8222237172 -6.15E-03
   180 Broy./Diag. 0.50E-01    0.5     0.00061343     -5417.8270390568 -4.82E-03
   181 Broy./Diag. 0.50E-01    0.5     0.00060827     -5417.8356262285 -8.59E-03
   182 Broy./Diag. 0.50E-01    0.5     0.00113511     -5417.8354200088  2.06E-04
   183 Broy./Diag. 0.50E-01    0.5     0.00058136     -5417.8401050041 -4.68E-03
   184 Broy./Diag. 0.50E-01    0.5     0.00084277     -5417.8495971611 -9.49E-03
   185 Broy./Diag. 0.50E-01    0.5     0.00068536     -5417.8413274413  8.27E-03
   186 Broy./Diag. 0.50E-01    0.5     0.00082507     -5417.8417255616 -3.98E-04
   187 Broy./Diag. 0.50E-01    0.5     0.00060710     -5417.8396703621  2.06E-03
   188 Broy./Diag. 0.50E-01    0.5     0.00225814     -5417.8399512850 -2.81E-04
   189 Broy./Diag. 0.50E-01    0.5     0.00078403     -5417.8364642130  3.49E-03
   190 Broy./Diag. 0.50E-01    0.5     0.00048041     -5417.8365351836 -7.10E-05
   191 Broy./Diag. 0.50E-01    0.5     0.00068144     -5417.8361731284  3.62E-04
   192 Broy./Diag. 0.50E-01    0.6     0.00049628     -5417.8325415720  3.63E-03
   193 Broy./Diag. 0.50E-01    0.6     0.00082095     -5417.8294889530  3.05E-03
   194 Broy./Diag. 0.50E-01    0.6     0.00034456     -5417.8281825791  1.31E-03
   195 Broy./Diag. 0.50E-01    0.5     0.00014846     -5417.8291060725 -9.23E-04
   196 Broy./Diag. 0.50E-01    0.5     0.00034613     -5417.8313678145 -2.26E-03
   197 Broy./Diag. 0.50E-01    0.5     0.00023963     -5417.8329521019 -1.58E-03
   198 Broy./Diag. 0.50E-01    0.5     0.00039688     -5417.8339145417 -9.62E-04
   199 Broy./Diag. 0.50E-01    0.5     0.00019371     -5417.8336692354  2.45E-04
   200 Broy./Diag. 0.50E-01    0.5     0.00029866     -5417.8323370491  1.33E-03
   201 Broy./Diag. 0.50E-01    0.5     0.00041737     -5417.8337213413 -1.38E-03
   202 Broy./Diag. 0.50E-01    0.5     0.00076709     -5417.8277460161  5.98E-03
   203 Broy./Diag. 0.50E-01    0.5     0.00061322     -5417.8367033589 -8.96E-03
   204 Broy./Diag. 0.50E-01    0.5     0.00014498     -5417.8340967698  2.61E-03
   205 Broy./Diag. 0.50E-01    0.5     0.00030652     -5417.8335555045  5.41E-04
   206 Broy./Diag. 0.50E-01    0.5     0.00069703     -5417.8357374747 -2.18E-03
   207 Broy./Diag. 0.50E-01    0.5     0.00065881     -5417.8330027156  2.73E-03
   208 Broy./Diag. 0.50E-01    0.5     0.00039796     -5417.8345214515 -1.52E-03
   209 Broy./Diag. 0.50E-01    0.5     0.00039581     -5417.8324282558  2.09E-03
   210 Broy./Diag. 0.50E-01    0.5     0.00031738     -5417.8331226619 -6.94E-04
   211 Broy./Diag. 0.50E-01    0.5     0.00021197     -5417.8300168357  3.11E-03
   212 Broy./Diag. 0.50E-01    0.5     0.00032800     -5417.8294125205  6.04E-04
   213 Broy./Diag. 0.50E-01    0.5     0.00029221     -5417.8293315761  8.09E-05
   214 Broy./Diag. 0.50E-01    0.5     0.00008257     -5417.8311370115 -1.81E-03
   215 Broy./Diag. 0.50E-01    0.5     0.00096190     -5417.8297101033  1.43E-03
   216 Broy./Diag. 0.50E-01    0.5     0.00074600     -5417.8298708903 -1.61E-04
   217 Broy./Diag. 0.50E-01    0.5     0.00112833     -5417.8296559662  2.15E-04
   218 Broy./Diag. 0.50E-01    0.5     0.00097658     -5417.8297832319 -1.27E-04
   219 Broy./Diag. 0.50E-01    0.5     0.00029895     -5417.8309796042 -1.20E-03
   220 Broy./Diag. 0.50E-01    0.5     0.00087202     -5417.8301401482  8.39E-04
   221 Broy./Diag. 0.50E-01    0.5     0.00145289     -5417.8293486727  7.91E-04
   222 Broy./Diag. 0.50E-01    0.5     0.00304125     -5417.8305502705 -1.20E-03
   223 Broy./Diag. 0.50E-01    0.5     0.00165524     -5417.8309651808 -4.15E-04
   224 Broy./Diag. 0.50E-01    0.5     0.00144985     -5417.8297753938  1.19E-03
   225 Broy./Diag. 0.50E-01    0.5     0.00022256     -5417.8280768829  1.70E-03
   226 Broy./Diag. 0.50E-01    0.5     0.00066016     -5417.8290387670 -9.62E-04
   227 Broy./Diag. 0.50E-01    0.5     0.00111465     -5417.8301514978 -1.11E-03
   228 Broy./Diag. 0.50E-01    0.5     0.00052024     -5417.8301953937 -4.39E-05
   229 Broy./Diag. 0.50E-01    0.5     0.00154363     -5417.8309785404 -7.83E-04
   230 Broy./Diag. 0.50E-01    0.5     0.00220410     -5417.8300259425  9.53E-04
   231 Broy./Diag. 0.50E-01    0.5     0.00151803     -5417.8299849578  4.10E-05
   232 Broy./Diag. 0.50E-01    0.5     0.00271486     -5417.8292388723  7.46E-04
   233 Broy./Diag. 0.50E-01    0.5     0.00181767     -5417.8296347205 -3.96E-04
   234 Broy./Diag. 0.50E-01    0.5     0.00136477     -5417.8304072133 -7.72E-04
   235 Broy./Diag. 0.50E-01    0.5     0.00273795     -5417.8314646100 -1.06E-03
   236 Broy./Diag. 0.50E-01    0.5     0.00144666     -5417.8299862393  1.48E-03
   237 Broy./Diag. 0.50E-01    0.5     0.00022681     -5417.8297630857  2.23E-04
   238 Broy./Diag. 0.50E-01    0.5     0.00020638     -5417.8305541110 -7.91E-04
   239 Broy./Diag. 0.50E-01    0.5     0.00074000     -5417.8296491070  9.05E-04
   240 Broy./Diag. 0.50E-01    0.5     0.00079431     -5417.8298868619 -2.38E-04
   241 Broy./Diag. 0.50E-01    0.5     0.00085822     -5417.8289437387  9.43E-04
   242 Broy./Diag. 0.50E-01    0.5     0.00077274     -5417.8286565934  2.87E-04
   243 Broy./Diag. 0.50E-01    0.5     0.00257290     -5417.8270878490  1.57E-03
   244 Broy./Diag. 0.50E-01    0.5     0.00062216     -5417.8277125980 -6.25E-04
   245 Broy./Diag. 0.50E-01    0.5     0.00050550     -5417.8269188324  7.94E-04
   246 Broy./Diag. 0.50E-01    0.6     0.00242079     -5417.8269670101 -4.82E-05
   247 Broy./Diag. 0.50E-01    0.5     0.00243699     -5417.8269095041  5.75E-05
   248 Broy./Diag. 0.50E-01    0.5     0.00040779     -5417.8278342347 -9.25E-04
   249 Broy./Diag. 0.50E-01    0.5     0.00030168     -5417.8265102362  1.32E-03
   250 Broy./Diag. 0.50E-01    0.5     0.00026033     -5417.8268836150 -3.73E-04
   251 Broy./Diag. 0.50E-01    0.5     0.00086011     -5417.8266678167  2.16E-04
   252 Broy./Diag. 0.50E-01    0.5     0.00514888     -5417.8249891437  1.68E-03
   253 Broy./Diag. 0.50E-01    0.5     0.00084898     -5417.8267285533 -1.74E-03
   254 Broy./Diag. 0.50E-01    0.5     0.00030545     -5417.8271940797 -4.66E-04
   255 Broy./Diag. 0.50E-01    0.5     0.00148664     -5417.8267794603  4.15E-04
   256 Broy./Diag. 0.50E-01    0.5     0.00064633     -5417.8264206189  3.59E-04
   257 Broy./Diag. 0.50E-01    0.5     0.00102964     -5417.8288457853 -2.43E-03
   258 Broy./Diag. 0.50E-01    0.5     0.00067275     -5417.8274789685  1.37E-03
   259 Broy./Diag. 0.50E-01    0.5     0.00050989     -5417.8279293493 -4.50E-04
   260 Broy./Diag. 0.50E-01    0.5     0.00376789     -5417.8273450309  5.84E-04
   261 Broy./Diag. 0.50E-01    0.5     0.00039117     -5417.8281064381 -7.61E-04
   262 Broy./Diag. 0.50E-01    0.5     0.00106178     -5417.8279590839  1.47E-04
   263 Broy./Diag. 0.50E-01    0.5     0.00093745     -5417.8287466406 -7.88E-04
   264 Broy./Diag. 0.50E-01    0.5     0.00091355     -5417.8279518588  7.95E-04
   265 Broy./Diag. 0.50E-01    0.5     0.00049147     -5417.8290346488 -1.08E-03
   266 Broy./Diag. 0.50E-01    0.5     0.00040244     -5417.8283334931  7.01E-04
   267 Broy./Diag. 0.50E-01    0.5     0.00104858     -5417.8288665285 -5.33E-04
   268 Broy./Diag. 0.50E-01    0.5     0.00126354     -5417.8287706882  9.58E-05
   269 Broy./Diag. 0.50E-01    0.5     0.00183769     -5417.8284228756  3.48E-04
   270 Broy./Diag. 0.50E-01    0.5     0.00051053     -5417.8279814914  4.41E-04
   271 Broy./Diag. 0.50E-01    0.5     0.00013148     -5417.8285905970 -6.09E-04
   272 Broy./Diag. 0.50E-01    0.5     0.00033425     -5417.8294055759 -8.15E-04
   273 Broy./Diag. 0.50E-01    0.5     0.00016140     -5417.8293222022  8.34E-05
   274 Broy./Diag. 0.50E-01    0.5     0.00044589     -5417.8296664147 -3.44E-04
   275 Broy./Diag. 0.50E-01    0.5     0.00157389     -5417.8289004806  7.66E-04
   276 Broy./Diag. 0.50E-01    0.5     0.00111642     -5417.8293537241 -4.53E-04
   277 Broy./Diag. 0.50E-01    0.5     0.00028586     -5417.8303497592 -9.96E-04
   278 Broy./Diag. 0.50E-01    0.6     0.00202266     -5417.8295589995  7.91E-04
   279 Broy./Diag. 0.50E-01    0.6     0.00256635     -5417.8299864000 -4.27E-04
   280 Broy./Diag. 0.50E-01    0.5     0.00507985     -5417.8283495267  1.64E-03
   281 Broy./Diag. 0.50E-01    0.5     0.00104406     -5417.8292168347 -8.67E-04
   282 Broy./Diag. 0.50E-01    0.5     0.00110341     -5417.8293460250 -1.29E-04
   283 Broy./Diag. 0.50E-01    0.6     0.00118714     -5417.8286439166  7.02E-04
   284 Broy./Diag. 0.50E-01    0.5     0.00078423     -5417.8282683261  3.76E-04
   285 Broy./Diag. 0.50E-01    0.5     0.00118803     -5417.8286777681 -4.09E-04
   286 Broy./Diag. 0.50E-01    0.5     0.00294975     -5417.8286964740 -1.87E-05
   287 Broy./Diag. 0.50E-01    0.5     0.00054761     -5417.8284612471  2.35E-04
   288 Broy./Diag. 0.50E-01    0.5     0.00196400     -5417.8296200899 -1.16E-03
   289 Broy./Diag. 0.50E-01    0.5     0.00130049     -5417.8277866135  1.83E-03
   290 Broy./Diag. 0.50E-01    0.5     0.00233922     -5417.8304769061 -2.69E-03
   291 Broy./Diag. 0.50E-01    0.5     0.00139020     -5417.8291194271  1.36E-03
   292 Broy./Diag. 0.50E-01    0.5     0.00047399     -5417.8289660386  1.53E-04
   293 Broy./Diag. 0.50E-01    0.5     0.00097575     -5417.8288012126  1.65E-04
   294 Broy./Diag. 0.50E-01    0.5     0.00051106     -5417.8294454039 -6.44E-04
[...]
      18     Ni       1         9.347529     8.658973    -0.006502     0.688556
      19     Ni       1         9.339876     8.666573    -0.006449     0.673303
      20     Ni       1         9.335227     8.676487    -0.011715     0.658740
      21     Ni       1         9.341484     8.671857    -0.013341     0.669627
      22     Ni       1         9.359660     8.638211     0.002130     0.721449
      23     Ni       1         9.352327     8.653040    -0.005367     0.699287
      24     Ni       1         9.345493     8.666948    -0.012441     0.678545
      25     Ni       1         9.339941     8.670357    -0.010298     0.669585
      26     Ni       1         9.347317     8.658044    -0.005361     0.689273
      27     Ni       1         9.352278     8.641969     0.005754     0.710309
      28     Ni       1         9.334279     8.676663    -0.010942     0.657616
      29     Ni       1         9.348504     8.656669    -0.005173     0.691835
      30     Ni       1         9.359728     8.636609     0.003662     0.723119
      31     Ni       1         9.364718     8.627698     0.007583     0.737020
      32     Ni       1         9.344685     8.666877    -0.011562     0.677808
 # Total charge and spin      298.999968   277.000032    -0.000000    21.999936

 !-----------------------------------------------------------------------------!

 !-----------------------------------------------------------------------------!
                           Hirshfeld Charges

  #Atom  Element  Kind  Ref Charge     Population       Spin moment  Net charge
      1       Ni     1      18.000    9.338   8.656            0.682      0.006
      2       Ni     1      18.000    9.331   8.674            0.657     -0.006
      3       Ni     1      18.000    9.323   8.682            0.642     -0.005
      4       Ni     1      18.000    9.339   8.649            0.690      0.012
      5       Ni     1      18.000    9.347   8.643            0.704      0.011
      6       Ni     1      18.000    9.344   8.654            0.690      0.002
      7       Ni     1      18.000    9.336   8.669            0.668     -0.005
      8       Ni     1      18.000    9.349   8.639            0.710      0.012
      9       Ni     1      18.000    9.345   8.642            0.703      0.013
     10       Ni     1      18.000    9.331   8.674            0.657     -0.005
     11       Ni     1      18.000    9.336   8.658            0.679      0.006
     12       Ni     1      18.000    9.338   8.649            0.689      0.013
     13       Ni     1      18.000    9.353   8.628            0.726      0.019
     14       Ni     1      18.000    9.344   8.653            0.691      0.003
     15       Ni     1      18.000    9.349   8.644            0.705      0.006
     16       Ni     1      18.000    9.348   8.639            0.709      0.013
     17       Ni     1      18.000    9.333   8.684            0.649     -0.017
     18       Ni     1      18.000    9.348   8.659            0.689     -0.006
     19       Ni     1      18.000    9.340   8.666            0.674     -0.006
     20       Ni     1      18.000    9.334   8.677            0.657     -0.011
     21       Ni     1      18.000    9.341   8.671            0.670     -0.013
     22       Ni     1      18.000    9.360   8.638            0.723      0.002
     23       Ni     1      18.000    9.353   8.652            0.701     -0.005
     24       Ni     1      18.000    9.344   8.668            0.677     -0.012
     25       Ni     1      18.000    9.340   8.670            0.670     -0.010
     26       Ni     1      18.000    9.348   8.658            0.690     -0.005
     27       Ni     1      18.000    9.353   8.641            0.712      0.006
     28       Ni     1      18.000    9.333   8.677            0.656     -0.010
     29       Ni     1      18.000    9.348   8.656            0.692     -0.005
     30       Ni     1      18.000    9.361   8.636            0.725      0.003
     31       Ni     1      18.000    9.366   8.627            0.740      0.007
     32       Ni     1      18.000    9.344   8.668            0.676     -0.011

  Total Charge                                                           -0.000
 !-----------------------------------------------------------------------------!

 ENERGY| Total FORCE_EVAL ( QS ) energy [a.u.]:            -5417.825402376616694

 -------------------------------------------------------------------------------
 -                                                                             -
 -                                DBCSR STATISTICS                             -
 -                                                                             -
 -------------------------------------------------------------------------------
 COUNTER                                    TOTAL       BLAS       SMM       ACC
 flops    26 x    26 x    30          21415680000       0.0%    100.0%      0.0%
 flops    26 x    26 x    32         205590528000       0.0%    100.0%      0.0%
 flops inhomo. stacks                           0       0.0%      0.0%      0.0%
 flops total                       227.006208E+09       0.0%    100.0%      0.0%
 flops max/rank                      3.009552E+09       0.0%    100.0%      0.0%
 matmuls inhomo. stacks                         0       0.0%      0.0%      0.0%
 matmuls total                            5280000       0.0%    100.0%      0.0%
 number of processed stacks               1280000       0.0%    100.0%      0.0%
 average stack size                                     0.0       4.1       0.0
 marketing flops                   405.017592E+09
 -------------------------------------------------------------------------------
 # multiplications                           1000
 max memory usage/rank             231.923712E+06
 # max total images/rank                        2
 # max 3D layers                                1
 # MPI messages exchanged                 3712000
 MPI messages size (bytes):
  total size                        46.565376E+09
  min size                           0.000000E+00
  max size                          26.624000E+03
  average size                      12.544552E+03
 MPI breakdown and total messages size (bytes):
             size <=      128             1392000                        0
       128 < size <=     8192                   0                        0
      8192 < size <=    32768             2320000              46565376000
     32768 < size <=   131072                   0                        0
    131072 < size <=  4194304                   0                        0
   4194304 < size <= 16777216                   0                        0
  16777216 < size                               0                        0
 -------------------------------------------------------------------------------

 *** WARNING in dbcsr_mm.F:290 :: Using a non-square number of MPI ranks ***
 *** might lead to poor performance. Used ranks: 128 Suggested: 121 256  ***

 -------------------------------------------------------------------------------
 -                                                                             -
 -                      DBCSR MESSAGE PASSING PERFORMANCE                      -
 -                                                                             -
 -------------------------------------------------------------------------------
 ROUTINE             CALLS      AVE VOLUME [Bytes]
 MP_Bcast                3                     12.
 MP_Allreduce         7025                      8.
 MP_Alltoall         28012                  50954.
 MP_ISend            64000                   6481.
 MP_IRecv            64000                   5647.
 -------------------------------------------------------------------------------

 -------------------------------------------------------------------------------
 -                                                                             -
 -                                DBM STATISTICS                               -
 -                                                                             -
 -------------------------------------------------------------------------------
    M  x    N  x    K                                          COUNT     PERCENT
 -------------------------------------------------------------------------------

 -------------------------------------------------------------------------------
 -                                                                             -
 -                                GRID STATISTICS                              -
 -                                                                             -
 -------------------------------------------------------------------------------
 LP    KERNEL             BACKEND                              COUNT     PERCENT
 6     collocate ortho    REF                               77210112      50.02%
 6     integrate ortho    REF                               77056000      49.92%
 0     integrate general  REF                                  65536       0.04%
 0     collocate general  REF                                  36864       0.02%
 -------------------------------------------------------------------------------

 MEMORY| Estimated peak process memory [MiB]                                 224

 -------------------------------------------------------------------------------
 ----                             MULTIGRID INFO                            ----
 -------------------------------------------------------------------------------
 count for grid        1:         969696          cutoff [a.u.]          300.00
 count for grid        2:         304320          cutoff [a.u.]          100.00
 count for grid        3:         238080          cutoff [a.u.]           33.33
 count for grid        4:          65120          cutoff [a.u.]           11.11
 count for grid        5:           5120          cutoff [a.u.]            3.70
 total gridlevel count  :        1582336

 -------------------------------------------------------------------------------
 -                                                                             -
 -                         MESSAGE PASSING PERFORMANCE                         -
 -                                                                             -
 -------------------------------------------------------------------------------

 ROUTINE             CALLS      AVE VOLUME [Bytes]
 MP_Group                5
 MP_Bcast             2531                  73596.
 MP_Allreduce        12903                     95.
 MP_Sync             18021
 MP_Alltoall         33034               27070080.
 MP_SendRecv        509016                   5208.
 MP_ISendRecv       508000                   5208.
 MP_Wait            606262
 MP_comm_split        1000
 MP_ISend           206212                  38670.
 MP_IRecv           206456                  38627.
 MP_Recv               750                 133120.
 MP_Write_All            2                  19908.
 -------------------------------------------------------------------------------


 -------------------------------------------------------------------------------
 -                                                                             -
 -                           R E F E R E N C E S                               -
 -                                                                             -
 -------------------------------------------------------------------------------
 
 CP2K version 2023.1, the CP2K developers group (2023).
 CP2K is freely available from https://www.cp2k.org/ .

 Kuehne,Thomas D.; Iannuzzi,Marcella; Del Ben,Mauro;
 Rybkin,Vladimir V.; Seewald,Patrick; Stein,Frederick; Laino,Teodoro;
 Khaliullin,Rustam Z.; Schuett,Ole; Schiffmann,Florian; Golze,Dorothea;
 Wilhelm,Jan; Chulkov,Sergey; Bani-Hashemian,Mohammad Hossein;
 Weber,Valery; Borstnik,Urban; Taillefumier,Mathieu;
 Jakobovits,Alice Shoshana; Lazzaro,Alfio; Pabst,Hans; Mueller,Tiziano;
 Schade,Robert; Guidon,Manuel; Andermatt,Samuel; Holmberg,Nico;
 Schenter,Gregory K.; Hehn,Anna; Bussy,Augustin; Belleflamme,Fabian;
 Tabacchi,Gloria; Gloess,Andreas; Lass,Michael; Bethune,Iain;
 Mundy,Christopher J.; Plessl,Christian; Watkins,Matt;
 VandeVondele,Joost; Krack,Matthias; Hutter,Juerg. 
 The Journal of Chemical Physics, 152 (19), (2020). 
 CP2K: An electronic structure and molecular dynamics software package -
 Quickstep: Efficient and accurate electronic structure calculations.
 https://doi.org/10.1063/5.0007045

 Schuett, Ole; Messmer, Peter; Hutter, Juerg; VandeVondele, Joost. 
 Electronic Structure Calculations on Graphics Processing Units, John
 Wiley & Sons, Ltd, 173-190 (2016). 
 GPU-Accelerated Sparse Matrix-Matrix Multiplication for
 Linear Scaling Density Functional Theory.
 https://doi.org/10.1002/9781118670712.ch8

 Heinecke, A; Henry, G; Hutchinson, M; Pabst, H. 
 Proceedings of Intl. Supercomputing Conference, 981-991 (2016). 
 LIBXSMM: Accelerating Small Matrix Multiplications
 by Runtime Code Generation.
 https://doi.org/10.1109/SC.2016.83

 Borstnik, U; VandeVondele, J; Weber, V; Hutter, J. 
 PARALLEL COMPUTING, 40 (5-6), 47-58 (2014). 
 Sparse matrix multiplication: The distributed block-compressed sparse
 row library.
 https://doi.org/10.1016/j.parco.2014.03.012

 Hutter, J; Iannuzzi, M; Schiffmann, F; VandeVondele, J. 
 WIREs Comput Mol Sci., 4 (1), 15-25 (2014). 
 CP2K: atomistic simulations of condensed matter systems.
 https://doi.org/10.1002/wcms.1159

 Marek, A; Blum, V; Johanni, R; Havu, V; Lang, B; Auckenthaler, T;
 Heinecke, A; Bungartz, H; Lederer, H. 
 Journal of Physics: Condensed Matter, 26 (21), (2014). 
 The ELPA library: scalable parallel eigenvalue solutions for
 electronic structure
 theory and computational science.
 https://doi.org/10.1088/0953-8984/26/21/213201

 VandeVondele, J; Hutter, J. 
 JOURNAL OF CHEMICAL PHYSICS, 127 (11), 114105 (2007). 
 Gaussian basis sets for accurate calculations on molecular systems in
 gas and condensed phases.
 https://doi.org/10.1063/1.2770708

 Krack, M. 
 THEORETICAL CHEMISTRY ACCOUNTS, 114 (1-3), 145-152 (2005). 
 Pseudopotentials for H to Kr optimized for gradient-corrected
 exchange-correlation functionals.
 https://doi.org/10.1007/s00214-005-0655-y

 VandeVondele, J; Krack, M; Mohamed, F; Parrinello, M; Chassaing, T;
 Hutter, J. COMPUTER PHYSICS COMMUNICATIONS, 167 (2), 103-128 (2005). 
 QUICKSTEP: Fast and accurate density functional calculations using a
 mixed Gaussian and plane waves approach.
 https://doi.org/10.1016/j.cpc.2004.12.014

 Frigo, M; Johnson, SG. 
 PROCEEDINGS OF THE IEEE, 93 (2), 216-231 (2005). 
 The design and implementation of FFTW3.
 https://doi.org/10.1109/JPROC.2004.840301

 Hartwigsen, C; Goedecker, S; Hutter, J. 
 PHYSICAL REVIEW B, 58 (7), 3641-3662 (1998). 
 Relativistic separable dual-space Gaussian pseudopotentials from H to Rn.
 https://doi.org/10.1103/PhysRevB.58.3641

 Lippert, G; Hutter, J; Parrinello, M. 
 MOLECULAR PHYSICS, 92 (3), 477-487 (1997). 
 A hybrid Gaussian and plane wave density functional scheme.
 https://doi.org/10.1080/002689797170220

 Perdew, JP; Burke, K; Ernzerhof, M. 
 PHYSICAL REVIEW LETTERS, 77 (18), 3865-3868 (1996). 
 Generalized gradient approximation made simple.
 https://doi.org/10.1103/PhysRevLett.77.3865

 Goedecker, S; Teter, M; Hutter, J. 
 PHYSICAL REVIEW B, 54 (3), 1703-1710 (1996). 
 Separable dual-space Gaussian pseudopotentials.
 https://doi.org/10.1103/PhysRevB.54.1703


 -------------------------------------------------------------------------------
 -                                                                             -
 -                                T I M I N G                                  -
 -                                                                             -
 -------------------------------------------------------------------------------
 SUBROUTINE                       CALLS  ASD         SELF TIME        TOTAL TIME
                                MAXIMUM       AVERAGE  MAXIMUM  AVERAGE  MAXIMUM
 CP2K                                 1  1.0    0.149    0.168  276.725  276.729
 qs_energies                          1  2.0    0.001    0.003  276.011  276.012
 scf_env_do_scf                       1  3.0    0.001    0.002  274.756  274.759
 scf_env_do_scf_inner_loop          500  4.0    0.022    0.164  274.755  274.757
 qs_ks_update_qs_env                500  5.0    0.008    0.010  102.372  102.447
 rebuild_ks_matrix                  500  6.0    0.003    0.004  102.314  102.389
 qs_ks_build_kohn_sham_matrix       500  7.0    0.073    0.110  102.312  102.386
 qs_rho_update_rho_low              501  5.0    0.004    0.005   89.570   89.577
 calculate_rho_elec                1002  6.0    0.078    0.087   89.565   89.573
 sum_up_and_integrate               500  8.0    0.068    0.138   86.158   86.245
 integrate_v_rspace                1000  9.0    0.028    0.039   86.085   86.183
 qs_scf_new_mos                     500  5.0    0.009    0.013   77.578   77.849
 eigensolver                       1000  6.0    0.093    0.130   72.849   72.872
 grid_collocate_task_list          1002  7.0   68.779   71.894   68.779   71.894
 cp_fm_diag_elpa                   1000  7.0    0.004    0.008   64.694   64.838
 grid_integrate_task_list          1000 10.0   61.554   64.504   61.554   64.504
 cp_fm_redistribute_end            1000  8.0   55.735   63.909   55.978   63.914
 cp_fm_diag_elpa_base              1000  8.0    7.707   61.794    7.849   62.822
 rs_pw_transfer                   10014  9.5    0.120    0.165   31.048   33.139
 density_rs2pw                     1002  7.0    0.040    0.047   19.752   21.816
 pw_transfer                      20511 10.0    2.582    2.771   20.955   21.761
 potential_pw2rs                   1000 10.0    0.038    0.045   20.704   20.948
 fft_wrap_pw1pw2                  19511 11.1    0.083    0.097   18.339   19.397
 fft_wrap_pw1pw2_300              11503 12.4    0.393    0.461   15.132   15.753
 qs_vxc_create                      500  8.0    0.007    0.009   14.822   14.872
 xc_vxc_pw_create                   500  9.0    0.132    0.145   14.815   14.865
 fft3d_pb                         11503 13.4    3.535    3.846   12.808   13.696
 mp_waitany                       64192 11.5    9.671   12.915    9.671   12.915
 rs_pw_transfer_PW2RS_300          1002 12.0    4.086    4.878   11.708   12.130
 rs_pw_transfer_RS2PW_300          1004  9.0    2.945    4.040    9.161   11.209
 mp_alltoall_z22v                 31014 15.2    7.996    9.492    7.996    9.492
 xc_rho_set_and_dset_create         500 10.0    0.145    0.167    8.989    9.485
 xc_pw_derive                      6000 11.0    0.016    0.020    8.174    8.868
 cp_fm_cholesky_restore            3000  7.0    7.810    8.024    7.810    8.024
 mp_alltoall_d11v                 14008  9.3    4.829    6.871    4.829    6.871
 xc_pw_divergence                  1000 10.0    0.008    0.010    5.550    6.347
 rs_gather_matrices                1000 10.0    0.057    0.111    3.800    5.833
 -------------------------------------------------------------------------------

 The number of warnings for this run is : 2
 
 -------------------------------------------------------------------------------
  **** **** ******  **  PROGRAM ENDED AT                 2023-02-06 17:20:59.579
 ***** ** ***  *** **   PROGRAM RAN ON                                 nid003068
 **    ****   ******    PROGRAM RAN BY                                    cahart
 ***** **    ** ** **   PROGRAM PROCESS ID                                166628
  **** **  *******  **  PROGRAM STOPPED IN /mnt/lustre/a2fs-work2/work/e05/e05/c
                                           ahart/postdoc/masters/ni/archer2/bulk
                                           /optimise/multiplicity-65_mos-30_temp
                                           -300/search/5.0E-02_4.0E-03
