 DBCSR| CPU Multiplication driver                                           XSMM (U)
 DBCSR| Multrec recursion limit                                              512 (U)
 DBCSR| Multiplication stack size                                           1000 (D)
 DBCSR| Maximum elements for images                                    UNLIMITED (U)
 DBCSR| Multiplicative factor virtual images                                   1 (U)
 DBCSR| Use multiplication densification                                       T (D)
 DBCSR| Multiplication size stacks                                             3 (U)
 DBCSR| Use memory pool for CPU allocation                                     F (U)
 DBCSR| Number of 3D layers                                               SINGLE (U)
 DBCSR| Use MPI memory allocation                                              F (U)
 DBCSR| Use RMA algorithm                                                      F (U)
 DBCSR| Use Communication thread                                               T (U)
 DBCSR| Communication thread load                                             87 (D)
 DBCSR| MPI: My process id                                                     0
 DBCSR| MPI: Number of processes                                             128
 DBCSR| OMP: Current number of threads                                         1
 DBCSR| OMP: Max number of threads                                             1
 DBCSR| Split modifier for TAS multiplication algorithm                  1.0E+00 (U)


  **** **** ******  **  PROGRAM STARTED AT               2023-05-11 22:09:58.652
 ***** ** ***  *** **   PROGRAM STARTED ON                             nid002241
 **    ****   ******    PROGRAM STARTED BY                                cahart
 ***** **    ** ** **   PROGRAM PROCESS ID                                258291
  **** **  *******  **  PROGRAM STARTED IN /mnt/lustre/a2fs-work2/work/e05/e05/c
                                           ahart/postdoc/masters/pt3ni/yike-111/
                                           fm/Ni-2_Pt-0/multiple-restarts/scf-1e
                                           -2_runs-21/pbe-d3_tzvp-kpoints/raw_of
                                           ficial_4e-2_4e-3_16_100_2000_6-6-1/sc
                                           f-1E-3

 CP2K| version string:                                       CP2K version 2023.1
 CP2K| source code revision number:                                  git:b888bd8
 CP2K| cp2kflags: omp libint fftw3 libxc elpa parallel scalapack xsmm plumed2 mk
 CP2K|            l
 CP2K| is freely available from                            https://www.cp2k.org/
 CP2K| Program compiled at                          Tue Jan 24 12:43:13 GMT 2023
 CP2K| Program compiled on                                                  ln03
 CP2K| Program compiled for                                              ARCHER2
 CP2K| Data directory path    /mnt/lustre/a2fs-work1/work/y07/shared/apps/core/c
 CP2K| Input file name                                                 input.inp

 GLOBAL| Force Environment number                                              1
 GLOBAL| Basis set file name                                    BASIS_MOLOPT_UCL
 GLOBAL| Potential file name                                      GTH_POTENTIALS
 GLOBAL| MM Potential file name                                     MM_POTENTIAL
 GLOBAL| Coordinate file name                                         struct.xyz
 GLOBAL| Method name                                                        CP2K
 GLOBAL| Project name                                                      Pt3Ni
 GLOBAL| Run type                                                         ENERGY
 GLOBAL| FFT library                                                       FFTW3
 GLOBAL| Diagonalization library                                            ELPA
 GLOBAL| DGEMM library                                                      BLAS
 GLOBAL| Minimum number of eigenvectors for ELPA usage                        16
 GLOBAL| Orthonormality check for eigenvectors                          DISABLED
 GLOBAL| Matrix multiplication library                                 ScaLAPACK
 GLOBAL| All-to-all communication in single precision                          F
 GLOBAL| FFTs using library dependent lengths                                  F
 GLOBAL| Grid backend                                                       AUTO
 GLOBAL| Global print level                                               MEDIUM
 GLOBAL| MPI I/O enabled                                                       T
 GLOBAL| Total number of message passing processes                           128
 GLOBAL| Number of threads for this process                                    1
 GLOBAL| This output is from process                                           0
 GLOBAL| Stack size for threads created by OpenMP (OMP_STACKSIZE)        default
 GLOBAL| CPU model name                          AMD EPYC 7742 64-Core Processor
 GLOBAL| CPUID                                                              1002

 MEMORY| system memory details [Kb]
 MEMORY|                        rank 0           min           max       average
 MEMORY| MemTotal            263528084     263528084     263528084     263528084
 MEMORY| MemFree             231830088     231830088     231830088     231830088
 MEMORY| Buffers                 24192         24192         24192         24192
 MEMORY| Cached                9847548       9847548       9847548       9847548
 MEMORY| Slab                  2796388       2796388       2796388       2796388
 MEMORY| SReclaimable           125472        125472        125472        125472
 MEMORY| MemLikelyFree       241827300     241827300     241827300     241827300


 *** Fundamental physical constants (SI units) ***

 *** Literature: B. J. Mohr and B. N. Taylor,
 ***             CODATA recommended values of the fundamental physical
 ***             constants: 2006, Web Version 5.1
 ***             http://physics.nist.gov/constants

 Speed of light in vacuum [m/s]                             2.99792458000000E+08
 Magnetic constant or permeability of vacuum [N/A**2]       1.25663706143592E-06
 Electric constant or permittivity of vacuum [F/m]          8.85418781762039E-12
 Planck constant (h) [J*s]                                  6.62606896000000E-34
 Planck constant (h-bar) [J*s]                              1.05457162825177E-34
 Elementary charge [C]                                      1.60217648700000E-19
 Electron mass [kg]                                         9.10938215000000E-31
 Electron g factor [ ]                                     -2.00231930436220E+00
 Proton mass [kg]                                           1.67262163700000E-27
 Fine-structure constant                                    7.29735253760000E-03
 Rydberg constant [1/m]                                     1.09737315685270E+07
 Avogadro constant [1/mol]                                  6.02214179000000E+23
 Boltzmann constant [J/K]                                   1.38065040000000E-23
 Atomic mass unit [kg]                                      1.66053878200000E-27
 Bohr radius [m]                                            5.29177208590000E-11

 *** Conversion factors ***

 [u] -> [a.u.]                                              1.82288848426455E+03
 [Angstrom] -> [Bohr] = [a.u.]                              1.88972613288564E+00
 [a.u.] = [Bohr] -> [Angstrom]                              5.29177208590000E-01
 [a.u.] -> [s]                                              2.41888432650478E-17
 [a.u.] -> [fs]                                             2.41888432650478E-02
 [a.u.] -> [J]                                              4.35974393937059E-18
 [a.u.] -> [N]                                              8.23872205491840E-08
 [a.u.] -> [K]                                              3.15774647902944E+05
 [a.u.] -> [kJ/mol]                                         2.62549961709828E+03
 [a.u.] -> [kcal/mol]                                       6.27509468713739E+02
 [a.u.] -> [Pa]                                             2.94210107994716E+13
 [a.u.] -> [bar]                                            2.94210107994716E+08
 [a.u.] -> [atm]                                            2.90362800883016E+08
 [a.u.] -> [eV]                                             2.72113838565563E+01
 [a.u.] -> [Hz]                                             6.57968392072181E+15
 [a.u.] -> [1/cm] (wave numbers)                            2.19474631370540E+05
 [a.u./Bohr**2] -> [1/cm]                                   5.14048714338585E+03
 

 CELL_TOP| Volume [angstrom^3]:                                      2213.590108
 CELL_TOP| Vector a [angstrom     9.378     0.000     0.000   |a| =     9.378000
 CELL_TOP| Vector b [angstrom    -4.689     8.122     0.000   |b| =     9.378358
 CELL_TOP| Vector c [angstrom     0.000     0.000    29.062   |c| =    29.061899
 CELL_TOP| Angle (b,c), alpha [degree]:                                90.000000
 CELL_TOP| Angle (a,c), beta  [degree]:                                90.000000
 CELL_TOP| Angle (a,b), gamma [degree]:                               119.998736
 CELL_TOP| Numerically orthorhombic:                                          NO
 CELL_TOP| Periodicity                                                       XYZ

 GENERATE|  Preliminary Number of Bonds generated:                             0
 GENERATE|  Achieved consistency in connectivity generation.

 CELL| Volume [angstrom^3]:                                          2213.590108
 CELL| Vector a [angstrom]:       9.378     0.000     0.000   |a| =     9.378000
 CELL| Vector b [angstrom]:      -4.689     8.122     0.000   |b| =     9.378358
 CELL| Vector c [angstrom]:       0.000     0.000    29.062   |c| =    29.061899
 CELL| Angle (b,c), alpha [degree]:                                    90.000000
 CELL| Angle (a,c), beta  [degree]:                                    90.000000
 CELL| Angle (a,b), gamma [degree]:                                   119.998736
 CELL| Numerically orthorhombic:                                              NO
 CELL| Periodicity                                                           XYZ

 CELL_REF| Volume [angstrom^3]:                                      2213.590108
 CELL_REF| Vector a [angstrom     9.378     0.000     0.000   |a| =     9.378000
 CELL_REF| Vector b [angstrom    -4.689     8.122     0.000   |b| =     9.378358
 CELL_REF| Vector c [angstrom     0.000     0.000    29.062   |c| =    29.061899
 CELL_REF| Angle (b,c), alpha [degree]:                                90.000000
 CELL_REF| Angle (a,c), beta  [degree]:                                90.000000
 CELL_REF| Angle (a,b), gamma [degree]:                               119.998736
 CELL_REF| Numerically orthorhombic:                                          NO
 CELL_REF| Periodicity                                                       XYZ

 *** WARNING in cryssym.F:165 :: Symmetry library SPGLIB not available ***


 *******************************************************************************
                                    Kpoints
 *******************************************************************************
 BRILLOUIN| K-point scheme                                        Monkhorst-Pack
 BRILLOUIN| K-Point grid                                             6    6    1
 BRILLOUIN| Accuracy in Symmetry determination                      0.100000E-05
 BRILLOUIN| K-Point point group symmetrization                               OFF
 BRILLOUIN| Wavefunction type                                            COMPLEX
 BRILLOUIN| List of Kpoints [2 Pi/Bohr]                                       18
 BRILLOUIN| Number           Weight            X              Y              Z
 BRILLOUIN|     1           0.05556       -0.41667       -0.41667        0.00000
 BRILLOUIN|     2           0.05556       -0.41667       -0.25000        0.00000
 BRILLOUIN|     3           0.05556       -0.41667       -0.08333        0.00000
 BRILLOUIN|     4           0.05556       -0.41667        0.08333        0.00000
 BRILLOUIN|     5           0.05556       -0.41667        0.25000        0.00000
 BRILLOUIN|     6           0.05556       -0.41667        0.41667        0.00000
 BRILLOUIN|     7           0.05556       -0.25000       -0.41667        0.00000
 BRILLOUIN|     8           0.05556       -0.25000       -0.25000        0.00000
 BRILLOUIN|     9           0.05556       -0.25000       -0.08333        0.00000
 BRILLOUIN|    10           0.05556       -0.25000        0.08333        0.00000
 BRILLOUIN|    11           0.05556       -0.25000        0.25000        0.00000
 BRILLOUIN|    12           0.05556       -0.25000        0.41667        0.00000
 BRILLOUIN|    13           0.05556       -0.08333       -0.41667        0.00000
 BRILLOUIN|    14           0.05556       -0.08333       -0.25000        0.00000
 BRILLOUIN|    15           0.05556       -0.08333       -0.08333        0.00000
 BRILLOUIN|    16           0.05556       -0.08333        0.08333        0.00000
 BRILLOUIN|    17           0.05556       -0.08333        0.25000        0.00000
 BRILLOUIN|    18           0.05556       -0.08333        0.41667        0.00000
 *******************************************************************************

 *******************************************************************************
 *******************************************************************************
 **                                                                           **
 **     #####                         ##              ##                      **
 **    ##   ##            ##          ##              ##                      **
 **   ##     ##                       ##            ######                    **
 **   ##     ##  ##   ##  ##   #####  ##  ##   ####   ##    #####    #####    **
 **   ##     ##  ##   ##  ##  ##      ## ##   ##      ##   ##   ##  ##   ##   **
 **   ##  ## ##  ##   ##  ##  ##      ####     ###    ##   ######   ######    **
 **    ##  ###   ##   ##  ##  ##      ## ##      ##   ##   ##       ##        **
 **     #######   #####   ##   #####  ##  ##  ####    ##    #####   ##        **
 **           ##                                                    ##        **
 **                                                                           **
 **                                                ... make the atoms dance   **
 **                                                                           **
 **            Copyright (C) by CP2K developers group (2000-2022)             **
 **                      J. Chem. Phys. 152, 194103 (2020)                    **
 **                                                                           **
 *******************************************************************************

 *** WARNING in qs_environment.F:1510 :: Kpoints: Different number of MOs   ***
 *** requested. The number of beta MOs will be set to the number alpha MOs. ***


 DFT| Spin unrestricted (spin-polarized) Kohn-Sham calculation               UKS
 DFT| Multiplicity                                                            31
 DFT| Number of spin states                                                    2
 DFT| Charge                                                                   0
 DFT| Self-interaction correction (SIC)                                       NO
 DFT| Cutoffs: density                                              1.000000E-10
 DFT|          gradient                                             1.000000E-10
 DFT|          tau                                                  1.000000E-10
 DFT|          cutoff_smoothing_range                               0.000000E+00
 DFT| XC density smoothing                                                  NONE
 DFT| XC derivatives                                                          PW

 FUNCTIONAL| PBE:
 FUNCTIONAL| J.P.Perdew, K.Burke, M.Ernzerhof, Phys. Rev. Letter, vol. 77, n 18,
 FUNCTIONAL|  pp. 3865-3868, (1996){spin polarized}                             

 vdW POTENTIAL|                                                   Pair Potential
 vdW POTENTIAL|          DFT-D3 (Version 3.1)
 vdW POTENTIAL|          Potential Form: S. Grimme et al, JCP 132: 154104 (2010)
 vdW POTENTIAL|          BJ Damping: S. Grimme et al, JCC 32: 1456 (2011)
 vdW POTENTIAL|          Cutoff Radius [Bohr]:                             20.00
 vdW POTENTIAL|          s6 Scaling Factor:                               1.0000
 vdW POTENTIAL|          a1 Damping Factor:                               0.4289
 vdW POTENTIAL|          s8 Scaling Factor:                               0.7875
 vdW POTENTIAL|          a2 Damping Factor:                               4.4407
 vdW POTENTIAL|          Cutoff for CN calculation:                   0.1000E-05

 QS| Method:                                                                 GPW
 QS| Density plane wave grid type                        NON-SPHERICAL FULLSPACE
 QS| Number of grid levels:                                                    4
 QS| Density cutoff [a.u.]:                                                250.0
 QS| Multi grid cutoff [a.u.]: 1) grid level                               250.0
 QS|                           2) grid level                                83.3
 QS|                           3) grid level                                27.8
 QS|                           4) grid level                                 9.3
 QS| Grid level progression factor:                                          3.0
 QS| Relative density cutoff [a.u.]:                                        30.0
 QS| Interaction thresholds: eps_pgf_orb:                                1.0E-07
 QS|                         eps_filter_matrix:                          0.0E+00
 QS|                         eps_core_charge:                            1.0E-16
 QS|                         eps_rho_gspace:                             1.0E-14
 QS|                         eps_rho_rspace:                             1.0E-14
 QS|                         eps_gvg_rspace:                             1.0E-07
 QS|                         eps_ppl:                                    1.0E-02
 QS|                         eps_ppnl:                                   1.0E-09


 ATOMIC KIND INFORMATION

  1. Atomic kind: Pt_1                                  Number of atoms:      12

     Orbital Basis Set                                        TZVP-MOLOPT-SR-GTH

       Number of orbital shell sets:                                           1
       Number of orbital shells:                                              11
       Number of primitive Cartesian functions:                                6
       Number of Cartesian basis functions:                                   41
       Number of spherical basis functions:                                   35
       Norm type:                                                              2

       Normalised Cartesian orbitals:

                        Set   Shell   Orbital            Exponent    Coefficient

                          1       1    2s                3.630668      -1.842736
                                                         3.114659       5.470062
                                                         1.999981      -2.195810
                                                         0.885340       0.062543
                                                         0.330796       0.293482
                                                         0.105770      -0.135909

                          1       2    3s                3.630668       0.121152
                                                         3.114659       0.282943
                                                         1.999981      -0.222703
                                                         0.885340      -0.152333
                                                         0.330796       0.059018
                                                         0.105770       0.127004

                          1       3    4s                3.630668      -0.844689
                                                         3.114659       0.385245
                                                         1.999981       0.302028
                                                         0.885340       0.710510
                                                         0.330796      -0.143042
                                                         0.105770       0.052286

                          1       4    5s                3.630668       0.158215
                                                         3.114659      -0.021237
                                                         1.999981       0.295915
                                                         0.885340       0.147596
                                                         0.330796       0.178153
                                                         0.105770      -0.001801

                          1       5    3px               3.630668       3.040485
                                                         3.114659      -1.243918
                                                         1.999981      -1.446991
                                                         0.885340      -0.752261
                                                         0.330796      -0.038235
                                                         0.105770      -0.012986
                          1       5    3py               3.630668       3.040485
                                                         3.114659      -1.243918
                                                         1.999981      -1.446991
                                                         0.885340      -0.752261
                                                         0.330796      -0.038235
                                                         0.105770      -0.012986
                          1       5    3pz               3.630668       3.040485
                                                         3.114659      -1.243918
                                                         1.999981      -1.446991
                                                         0.885340      -0.752261
                                                         0.330796      -0.038235
                                                         0.105770      -0.012986

                          1       6    4px               3.630668      -0.682003
                                                         3.114659       0.534307
                                                         1.999981      -0.228673
                                                         0.885340      -0.386548
                                                         0.330796       0.185127
                                                         0.105770       0.061336
                          1       6    4py               3.630668      -0.682003
                                                         3.114659       0.534307
                                                         1.999981      -0.228673
                                                         0.885340      -0.386548
                                                         0.330796       0.185127
                                                         0.105770       0.061336
                          1       6    4pz               3.630668      -0.682003
                                                         3.114659       0.534307
                                                         1.999981      -0.228673
                                                         0.885340      -0.386548
                                                         0.330796       0.185127
                                                         0.105770       0.061336

                          1       7    5px               3.630668       2.991696
                                                         3.114659      -1.856536
                                                         1.999981      -0.041638
                                                         0.885340       0.415739
                                                         0.330796      -0.550872
                                                         0.105770       0.117200
                          1       7    5py               3.630668       2.991696
                                                         3.114659      -1.856536
                                                         1.999981      -0.041638
                                                         0.885340       0.415739
                                                         0.330796      -0.550872
                                                         0.105770       0.117200
                          1       7    5pz               3.630668       2.991696
                                                         3.114659      -1.856536
                                                         1.999981      -0.041638
                                                         0.885340       0.415739
                                                         0.330796      -0.550872
                                                         0.105770       0.117200

                          1       8    4dx2              3.630668      -4.431593
                                                         3.114659       2.994590
                                                         1.999981       1.001089
                                                         0.885340       0.609842
                                                         0.330796       0.095979
                                                         0.105770       0.006573
                          1       8    4dxy              3.630668      -7.675744
                                                         3.114659       5.186782
                                                         1.999981       1.733937
                                                         0.885340       1.056277
                                                         0.330796       0.166241
                                                         0.105770       0.011385
                          1       8    4dxz              3.630668      -7.675744
                                                         3.114659       5.186782
                                                         1.999981       1.733937
                                                         0.885340       1.056277
                                                         0.330796       0.166241
                                                         0.105770       0.011385
                          1       8    4dy2              3.630668      -4.431593
                                                         3.114659       2.994590
                                                         1.999981       1.001089
                                                         0.885340       0.609842
                                                         0.330796       0.095979
                                                         0.105770       0.006573
                          1       8    4dyz              3.630668      -7.675744
                                                         3.114659       5.186782
                                                         1.999981       1.733937
                                                         0.885340       1.056277
                                                         0.330796       0.166241
                                                         0.105770       0.011385
                          1       8    4dz2              3.630668      -4.431593
                                                         3.114659       2.994590
                                                         1.999981       1.001089
                                                         0.885340       0.609842
                                                         0.330796       0.095979
                                                         0.105770       0.006573

                          1       9    5dx2              3.630668       5.386940
                                                         3.114659      -6.252972
                                                         1.999981       1.665659
                                                         0.885340      -0.233657
                                                         0.330796       0.037246
                                                         0.105770       0.029979
                          1       9    5dxy              3.630668       9.330454
                                                         3.114659     -10.830464
                                                         1.999981       2.885005
                                                         0.885340      -0.404706
                                                         0.330796       0.064512
                                                         0.105770       0.051925
                          1       9    5dxz              3.630668       9.330454
                                                         3.114659     -10.830464
                                                         1.999981       2.885005
                                                         0.885340      -0.404706
                                                         0.330796       0.064512
                                                         0.105770       0.051925
                          1       9    5dy2              3.630668       5.386940
                                                         3.114659      -6.252972
                                                         1.999981       1.665659
                                                         0.885340      -0.233657
                                                         0.330796       0.037246
                                                         0.105770       0.029979
                          1       9    5dyz              3.630668       9.330454
                                                         3.114659     -10.830464
                                                         1.999981       2.885005
                                                         0.885340      -0.404706
                                                         0.330796       0.064512
                                                         0.105770       0.051925
                          1       9    5dz2              3.630668       5.386940
                                                         3.114659      -6.252972
                                                         1.999981       1.665659
                                                         0.885340      -0.233657
                                                         0.330796       0.037246
                                                         0.105770       0.029979

                          1      10    6dx2              3.630668       3.739160
                                                         3.114659      -5.999130
                                                         1.999981       3.061528
                                                         0.885340       1.138316
                                                         0.330796      -0.143027
                                                         0.105770      -0.009138
                          1      10    6dxy              3.630668       6.476416
                                                         3.114659     -10.390798
                                                         1.999981       5.302723
                                                         0.885340       1.971621
                                                         0.330796      -0.247730
                                                         0.105770      -0.015827
                          1      10    6dxz              3.630668       6.476416
                                                         3.114659     -10.390798
                                                         1.999981       5.302723
                                                         0.885340       1.971621
                                                         0.330796      -0.247730
                                                         0.105770      -0.015827
                          1      10    6dy2              3.630668       3.739160
                                                         3.114659      -5.999130
                                                         1.999981       3.061528
                                                         0.885340       1.138316
                                                         0.330796      -0.143027
                                                         0.105770      -0.009138
                          1      10    6dyz              3.630668       6.476416
                                                         3.114659     -10.390798
                                                         1.999981       5.302723
                                                         0.885340       1.971621
                                                         0.330796      -0.247730
                                                         0.105770      -0.015827
                          1      10    6dz2              3.630668       3.739160
                                                         3.114659      -5.999130
                                                         1.999981       3.061528
                                                         0.885340       1.138316
                                                         0.330796      -0.143027
                                                         0.105770      -0.009138

                          1      11    5fx3              3.630668       4.675468
                                                         3.114659      -5.283430
                                                         1.999981       1.060779
                                                         0.885340      -0.426082
                                                         0.330796      -0.076594
                                                         0.105770      -0.002294
                          1      11    5fx2y             3.630668      10.454665
                                                         3.114659     -11.814108
                                                         1.999981       2.371973
                                                         0.885340      -0.952748
                                                         0.330796      -0.171270
                                                         0.105770      -0.005130
                          1      11    5fx2z             3.630668      10.454665
                                                         3.114659     -11.814108
                                                         1.999981       2.371973
                                                         0.885340      -0.952748
                                                         0.330796      -0.171270
                                                         0.105770      -0.005130
                          1      11    5fxy2             3.630668      10.454665
                                                         3.114659     -11.814108
                                                         1.999981       2.371973
                                                         0.885340      -0.952748
                                                         0.330796      -0.171270
                                                         0.105770      -0.005130
                          1      11    5fxyz             3.630668      18.108011
                                                         3.114659     -20.462636
                                                         1.999981       4.108378
                                                         0.885340      -1.650208
                                                         0.330796      -0.296649
                                                         0.105770      -0.008885
                          1      11    5fxz2             3.630668      10.454665
                                                         3.114659     -11.814108
                                                         1.999981       2.371973
                                                         0.885340      -0.952748
                                                         0.330796      -0.171270
                                                         0.105770      -0.005130
                          1      11    5fy3              3.630668       4.675468
                                                         3.114659      -5.283430
                                                         1.999981       1.060779
                                                         0.885340      -0.426082
                                                         0.330796      -0.076594
                                                         0.105770      -0.002294
                          1      11    5fy2z             3.630668      10.454665
                                                         3.114659     -11.814108
                                                         1.999981       2.371973
                                                         0.885340      -0.952748
                                                         0.330796      -0.171270
                                                         0.105770      -0.005130
                          1      11    5fyz2             3.630668      10.454665
                                                         3.114659     -11.814108
                                                         1.999981       2.371973
                                                         0.885340      -0.952748
                                                         0.330796      -0.171270
                                                         0.105770      -0.005130
                          1      11    5fz3              3.630668       4.675468
                                                         3.114659      -5.283430
                                                         1.999981       1.060779
                                                         0.885340      -0.426082
                                                         0.330796      -0.076594
                                                         0.105770      -0.002294

       Atomic covalent radius [Angstrom]:                                  1.300

       Atomic van der Waals radius [Angstrom]:                             1.750

     GTH Potential information for                                   GTH-PBE-q18

       Description:                       Goedecker-Teter-Hutter pseudopotential
                                           Goedecker et al., PRB 54, 1703 (1996)
                                          Hartwigsen et al., PRB 58, 3641 (1998)
                                                      Krack, TCA 114, 145 (2005)

       Gaussian exponent of the core charge distribution:               2.000000
       Electronic configuration (s p d ...):                           3   6   9

       Parameters of the local part of the GTH pseudopotential:

                          rloc        C1          C2          C3          C4
                        0.500000    8.814323   -0.292509

       Parameters of the non-local part of the GTH pseudopotential:

                   l      r(l)      h(i,j,l)

                   0    0.298002   -5.968385   24.212900  -13.789679
                                   24.212900  -53.687634   35.604799
                                  -13.789679   35.604799  -28.260433
                   1    0.360172   -6.668659    7.170659    0.766904
                                    7.170659   -7.207661   -1.814825
                                    0.766904   -1.814825    1.289806
                   2    0.340532   -8.589905    9.410122
                                    9.410122  -10.670075

  2. Atomic kind: Ni_1                                  Number of atoms:       6

     Orbital Basis Set                                        TZVP-MOLOPT-SR-GTH

       Number of orbital shell sets:                                           1
       Number of orbital shells:                                              11
       Number of primitive Cartesian functions:                                6
       Number of Cartesian basis functions:                                   41
       Number of spherical basis functions:                                   35
       Norm type:                                                              2

       Normalised Cartesian orbitals:

                        Set   Shell   Orbital            Exponent    Coefficient

                          1       1    2s               10.077428      -0.302595
                                                         5.847736      -0.222193
                                                         2.494033       0.574584
                                                         0.988355       0.318352
                                                         0.344978       0.055413
                                                         0.099466       0.030222

                          1       2    3s               10.077428      -0.109296
                                                         5.847736      -0.204670
                                                         2.494033      -0.072994
                                                         0.988355      -0.407289
                                                         0.344978       0.098705
                                                         0.099466       0.115595

                          1       3    4s               10.077428       0.007401
                                                         5.847736      -0.106218
                                                         2.494033       0.440206
                                                         0.988355      -0.350232
                                                         0.344978       0.574016
                                                         0.099466      -0.113477

                          1       4    5s               10.077428       0.961462
                                                         5.847736       1.735304
                                                         2.494033      -0.914520
                                                         0.988355       0.345896
                                                         0.344978       0.117877
                                                         0.099466       0.026434

                          1       5    3px              10.077428      -3.378145
                                                         5.847736       3.169144
                                                         2.494033       2.066060
                                                         0.988355       0.550774
                                                         0.344978       0.079106
                                                         0.099466      -0.015734
                          1       5    3py              10.077428      -3.378145
                                                         5.847736       3.169144
                                                         2.494033       2.066060
                                                         0.988355       0.550774
                                                         0.344978       0.079106
                                                         0.099466      -0.015734
                          1       5    3pz              10.077428      -3.378145
                                                         5.847736       3.169144
                                                         2.494033       2.066060
                                                         0.988355       0.550774
                                                         0.344978       0.079106
                                                         0.099466      -0.015734

                          1       6    4px              10.077428      -0.644889
                                                         5.847736       0.547979
                                                         2.494033       0.967294
                                                         0.988355       0.073434
                                                         0.344978       0.050765
                                                         0.099466       0.065502
                          1       6    4py              10.077428      -0.644889
                                                         5.847736       0.547979
                                                         2.494033       0.967294
                                                         0.988355       0.073434
                                                         0.344978       0.050765
                                                         0.099466       0.065502
                          1       6    4pz              10.077428      -0.644889
                                                         5.847736       0.547979
                                                         2.494033       0.967294
                                                         0.988355       0.073434
                                                         0.344978       0.050765
                                                         0.099466       0.065502

                          1       7    5px              10.077428       0.764195
                                                         5.847736      -0.031006
                                                         2.494033       1.906720
                                                         0.988355       0.247914
                                                         0.344978      -0.445294
                                                         0.099466       0.005651
                          1       7    5py              10.077428       0.764195
                                                         5.847736      -0.031006
                                                         2.494033       1.906720
                                                         0.988355       0.247914
                                                         0.344978      -0.445294
                                                         0.099466       0.005651
                          1       7    5pz              10.077428       0.764195
                                                         5.847736      -0.031006
                                                         2.494033       1.906720
                                                         0.988355       0.247914
                                                         0.344978      -0.445294
                                                         0.099466       0.005651

                          1       8    4dx2             10.077428       7.796629
                                                         5.847736       8.441930
                                                         2.494033       2.856564
                                                         0.988355       0.427548
                                                         0.344978       0.061999
                                                         0.099466       0.008926
                          1       8    4dxy             10.077428      13.504157
                                                         5.847736      14.621851
                                                         2.494033       4.947714
                                                         0.988355       0.740535
                                                         0.344978       0.107385
                                                         0.099466       0.015461
                          1       8    4dxz             10.077428      13.504157
                                                         5.847736      14.621851
                                                         2.494033       4.947714
                                                         0.988355       0.740535
                                                         0.344978       0.107385
                                                         0.099466       0.015461
                          1       8    4dy2             10.077428       7.796629
                                                         5.847736       8.441930
                                                         2.494033       2.856564
                                                         0.988355       0.427548
                                                         0.344978       0.061999
                                                         0.099466       0.008926
                          1       8    4dyz             10.077428      13.504157
                                                         5.847736      14.621851
                                                         2.494033       4.947714
                                                         0.988355       0.740535
                                                         0.344978       0.107385
                                                         0.099466       0.015461
                          1       8    4dz2             10.077428       7.796629
                                                         5.847736       8.441930
                                                         2.494033       2.856564
                                                         0.988355       0.427548
                                                         0.344978       0.061999
                                                         0.099466       0.008926

                          1       9    5dx2             10.077428      -7.900462
                                                         5.847736      -8.487046
                                                         2.494033      -2.930041
                                                         0.988355      -0.403696
                                                         0.344978       0.088100
                                                         0.099466       0.016065
                          1       9    5dxy             10.077428     -13.684001
                                                         5.847736     -14.699995
                                                         2.494033      -5.074980
                                                         0.988355      -0.699222
                                                         0.344978       0.152594
                                                         0.099466       0.027826
                          1       9    5dxz             10.077428     -13.684001
                                                         5.847736     -14.699995
                                                         2.494033      -5.074980
                                                         0.988355      -0.699222
                                                         0.344978       0.152594
                                                         0.099466       0.027826
                          1       9    5dy2             10.077428      -7.900462
                                                         5.847736      -8.487046
                                                         2.494033      -2.930041
                                                         0.988355      -0.403696
                                                         0.344978       0.088100
                                                         0.099466       0.016065
                          1       9    5dyz             10.077428     -13.684001
                                                         5.847736     -14.699995
                                                         2.494033      -5.074980
                                                         0.988355      -0.699222
                                                         0.344978       0.152594
                                                         0.099466       0.027826
                          1       9    5dz2             10.077428      -7.900462
                                                         5.847736      -8.487046
                                                         2.494033      -2.930041
                                                         0.988355      -0.403696
                                                         0.344978       0.088100
                                                         0.099466       0.016065

                          1      10    6dx2             10.077428       4.546077
                                                         5.847736       1.882393
                                                         2.494033       2.955176
                                                         0.988355      -0.717181
                                                         0.344978      -0.225761
                                                         0.099466       0.017786
                          1      10    6dxy             10.077428       7.874037
                                                         5.847736       3.260400
                                                         2.494033       5.118515
                                                         0.988355      -1.242193
                                                         0.344978      -0.391029
                                                         0.099466       0.030807
                          1      10    6dxz             10.077428       7.874037
                                                         5.847736       3.260400
                                                         2.494033       5.118515
                                                         0.988355      -1.242193
                                                         0.344978      -0.391029
                                                         0.099466       0.030807
                          1      10    6dy2             10.077428       4.546077
                                                         5.847736       1.882393
                                                         2.494033       2.955176
                                                         0.988355      -0.717181
                                                         0.344978      -0.225761
                                                         0.099466       0.017786
                          1      10    6dyz             10.077428       7.874037
                                                         5.847736       3.260400
                                                         2.494033       5.118515
                                                         0.988355      -1.242193
                                                         0.344978      -0.391029
                                                         0.099466       0.030807
                          1      10    6dz2             10.077428       4.546077
                                                         5.847736       1.882393
                                                         2.494033       2.955176
                                                         0.988355      -0.717181
                                                         0.344978      -0.225761
                                                         0.099466       0.017786

                          1      11    5fx3             10.077428      -3.535394
                                                         5.847736       2.986110
                                                         2.494033       0.050340
                                                         0.988355       0.512187
                                                         0.344978       0.078257
                                                         0.099466       0.002668
                          1      11    5fx2y            10.077428      -7.905381
                                                         5.847736       6.677145
                                                         2.494033       0.112563
                                                         0.988355       1.145286
                                                         0.344978       0.174988
                                                         0.099466       0.005967
                          1      11    5fx2z            10.077428      -7.905381
                                                         5.847736       6.677145
                                                         2.494033       0.112563
                                                         0.988355       1.145286
                                                         0.344978       0.174988
                                                         0.099466       0.005967
                          1      11    5fxy2            10.077428      -7.905381
                                                         5.847736       6.677145
                                                         2.494033       0.112563
                                                         0.988355       1.145286
                                                         0.344978       0.174988
                                                         0.099466       0.005967
                          1      11    5fxyz            10.077428     -13.692521
                                                         5.847736      11.565154
                                                         2.494033       0.194965
                                                         0.988355       1.983693
                                                         0.344978       0.303088
                                                         0.099466       0.010334
                          1      11    5fxz2            10.077428      -7.905381
                                                         5.847736       6.677145
                                                         2.494033       0.112563
                                                         0.988355       1.145286
                                                         0.344978       0.174988
                                                         0.099466       0.005967
                          1      11    5fy3             10.077428      -3.535394
                                                         5.847736       2.986110
                                                         2.494033       0.050340
                                                         0.988355       0.512187
                                                         0.344978       0.078257
                                                         0.099466       0.002668
                          1      11    5fy2z            10.077428      -7.905381
                                                         5.847736       6.677145
                                                         2.494033       0.112563
                                                         0.988355       1.145286
                                                         0.344978       0.174988
                                                         0.099466       0.005967
                          1      11    5fyz2            10.077428      -7.905381
                                                         5.847736       6.677145
                                                         2.494033       0.112563
                                                         0.988355       1.145286
                                                         0.344978       0.174988
                                                         0.099466       0.005967
                          1      11    5fz3             10.077428      -3.535394
                                                         5.847736       2.986110
                                                         2.494033       0.050340
                                                         0.988355       0.512187
                                                         0.344978       0.078257
                                                         0.099466       0.002668

       Atomic covalent radius [Angstrom]:                                  1.150

       Atomic van der Waals radius [Angstrom]:                             1.630

     GTH Potential information for                                   GTH-PBE-q18

       Description:                       Goedecker-Teter-Hutter pseudopotential
                                           Goedecker et al., PRB 54, 1703 (1996)
                                          Hartwigsen et al., PRB 58, 3641 (1998)
                                                      Krack, TCA 114, 145 (2005)

       Gaussian exponent of the core charge distribution:               4.081633
       Electronic configuration (s p d ...):                           4   6   8

       Parameters of the local part of the GTH pseudopotential:

                          rloc        C1          C2          C3          C4
                        0.350000    2.102166    0.648484

       Parameters of the non-local part of the GTH pseudopotential:

                   l      r(l)      h(i,j,l)

                   0    0.261295    0.622658    9.970227
                                    9.970227  -12.871507
                   1    0.224253  -11.142708   12.429566
                                   12.429566  -14.706861
                   2    0.215348  -12.628146

  3. Atomic kind: Pt_2                                  Number of atoms:       6

     Orbital Basis Set                                        TZVP-MOLOPT-SR-GTH

       Number of orbital shell sets:                                           1
       Number of orbital shells:                                              11
       Number of primitive Cartesian functions:                                6
       Number of Cartesian basis functions:                                   41
       Number of spherical basis functions:                                   35
       Norm type:                                                              2

       Normalised Cartesian orbitals:

                        Set   Shell   Orbital            Exponent    Coefficient

                          1       1    2s                3.630668      -1.842736
                                                         3.114659       5.470062
                                                         1.999981      -2.195810
                                                         0.885340       0.062543
                                                         0.330796       0.293482
                                                         0.105770      -0.135909

                          1       2    3s                3.630668       0.121152
                                                         3.114659       0.282943
                                                         1.999981      -0.222703
                                                         0.885340      -0.152333
                                                         0.330796       0.059018
                                                         0.105770       0.127004

                          1       3    4s                3.630668      -0.844689
                                                         3.114659       0.385245
                                                         1.999981       0.302028
                                                         0.885340       0.710510
                                                         0.330796      -0.143042
                                                         0.105770       0.052286

                          1       4    5s                3.630668       0.158215
                                                         3.114659      -0.021237
                                                         1.999981       0.295915
                                                         0.885340       0.147596
                                                         0.330796       0.178153
                                                         0.105770      -0.001801

                          1       5    3px               3.630668       3.040485
                                                         3.114659      -1.243918
                                                         1.999981      -1.446991
                                                         0.885340      -0.752261
                                                         0.330796      -0.038235
                                                         0.105770      -0.012986
                          1       5    3py               3.630668       3.040485
                                                         3.114659      -1.243918
                                                         1.999981      -1.446991
                                                         0.885340      -0.752261
                                                         0.330796      -0.038235
                                                         0.105770      -0.012986
                          1       5    3pz               3.630668       3.040485
                                                         3.114659      -1.243918
                                                         1.999981      -1.446991
                                                         0.885340      -0.752261
                                                         0.330796      -0.038235
                                                         0.105770      -0.012986

                          1       6    4px               3.630668      -0.682003
                                                         3.114659       0.534307
                                                         1.999981      -0.228673
                                                         0.885340      -0.386548
                                                         0.330796       0.185127
                                                         0.105770       0.061336
                          1       6    4py               3.630668      -0.682003
                                                         3.114659       0.534307
                                                         1.999981      -0.228673
                                                         0.885340      -0.386548
                                                         0.330796       0.185127
                                                         0.105770       0.061336
                          1       6    4pz               3.630668      -0.682003
                                                         3.114659       0.534307
                                                         1.999981      -0.228673
                                                         0.885340      -0.386548
                                                         0.330796       0.185127
                                                         0.105770       0.061336

                          1       7    5px               3.630668       2.991696
                                                         3.114659      -1.856536
                                                         1.999981      -0.041638
                                                         0.885340       0.415739
                                                         0.330796      -0.550872
                                                         0.105770       0.117200
                          1       7    5py               3.630668       2.991696
                                                         3.114659      -1.856536
                                                         1.999981      -0.041638
                                                         0.885340       0.415739
                                                         0.330796      -0.550872
                                                         0.105770       0.117200
                          1       7    5pz               3.630668       2.991696
                                                         3.114659      -1.856536
                                                         1.999981      -0.041638
                                                         0.885340       0.415739
                                                         0.330796      -0.550872
                                                         0.105770       0.117200

                          1       8    4dx2              3.630668      -4.431593
                                                         3.114659       2.994590
                                                         1.999981       1.001089
                                                         0.885340       0.609842
                                                         0.330796       0.095979
                                                         0.105770       0.006573
                          1       8    4dxy              3.630668      -7.675744
                                                         3.114659       5.186782
                                                         1.999981       1.733937
                                                         0.885340       1.056277
                                                         0.330796       0.166241
                                                         0.105770       0.011385
                          1       8    4dxz              3.630668      -7.675744
                                                         3.114659       5.186782
                                                         1.999981       1.733937
                                                         0.885340       1.056277
                                                         0.330796       0.166241
                                                         0.105770       0.011385
                          1       8    4dy2              3.630668      -4.431593
                                                         3.114659       2.994590
                                                         1.999981       1.001089
                                                         0.885340       0.609842
                                                         0.330796       0.095979
                                                         0.105770       0.006573
                          1       8    4dyz              3.630668      -7.675744
                                                         3.114659       5.186782
                                                         1.999981       1.733937
                                                         0.885340       1.056277
                                                         0.330796       0.166241
                                                         0.105770       0.011385
                          1       8    4dz2              3.630668      -4.431593
                                                         3.114659       2.994590
                                                         1.999981       1.001089
                                                         0.885340       0.609842
                                                         0.330796       0.095979
                                                         0.105770       0.006573

                          1       9    5dx2              3.630668       5.386940
                                                         3.114659      -6.252972
                                                         1.999981       1.665659
                                                         0.885340      -0.233657
                                                         0.330796       0.037246
                                                         0.105770       0.029979
                          1       9    5dxy              3.630668       9.330454
                                                         3.114659     -10.830464
                                                         1.999981       2.885005
                                                         0.885340      -0.404706
                                                         0.330796       0.064512
                                                         0.105770       0.051925
                          1       9    5dxz              3.630668       9.330454
                                                         3.114659     -10.830464
                                                         1.999981       2.885005
                                                         0.885340      -0.404706
                                                         0.330796       0.064512
                                                         0.105770       0.051925
                          1       9    5dy2              3.630668       5.386940
                                                         3.114659      -6.252972
                                                         1.999981       1.665659
                                                         0.885340      -0.233657
                                                         0.330796       0.037246
                                                         0.105770       0.029979
                          1       9    5dyz              3.630668       9.330454
                                                         3.114659     -10.830464
                                                         1.999981       2.885005
                                                         0.885340      -0.404706
                                                         0.330796       0.064512
                                                         0.105770       0.051925
                          1       9    5dz2              3.630668       5.386940
                                                         3.114659      -6.252972
                                                         1.999981       1.665659
                                                         0.885340      -0.233657
                                                         0.330796       0.037246
                                                         0.105770       0.029979

                          1      10    6dx2              3.630668       3.739160
                                                         3.114659      -5.999130
                                                         1.999981       3.061528
                                                         0.885340       1.138316
                                                         0.330796      -0.143027
                                                         0.105770      -0.009138
                          1      10    6dxy              3.630668       6.476416
                                                         3.114659     -10.390798
                                                         1.999981       5.302723
                                                         0.885340       1.971621
                                                         0.330796      -0.247730
                                                         0.105770      -0.015827
                          1      10    6dxz              3.630668       6.476416
                                                         3.114659     -10.390798
                                                         1.999981       5.302723
                                                         0.885340       1.971621
                                                         0.330796      -0.247730
                                                         0.105770      -0.015827
                          1      10    6dy2              3.630668       3.739160
                                                         3.114659      -5.999130
                                                         1.999981       3.061528
                                                         0.885340       1.138316
                                                         0.330796      -0.143027
                                                         0.105770      -0.009138
                          1      10    6dyz              3.630668       6.476416
                                                         3.114659     -10.390798
                                                         1.999981       5.302723
                                                         0.885340       1.971621
                                                         0.330796      -0.247730
                                                         0.105770      -0.015827
                          1      10    6dz2              3.630668       3.739160
                                                         3.114659      -5.999130
                                                         1.999981       3.061528
                                                         0.885340       1.138316
                                                         0.330796      -0.143027
                                                         0.105770      -0.009138

                          1      11    5fx3              3.630668       4.675468
                                                         3.114659      -5.283430
                                                         1.999981       1.060779
                                                         0.885340      -0.426082
                                                         0.330796      -0.076594
                                                         0.105770      -0.002294
                          1      11    5fx2y             3.630668      10.454665
                                                         3.114659     -11.814108
                                                         1.999981       2.371973
                                                         0.885340      -0.952748
                                                         0.330796      -0.171270
                                                         0.105770      -0.005130
                          1      11    5fx2z             3.630668      10.454665
                                                         3.114659     -11.814108
                                                         1.999981       2.371973
                                                         0.885340      -0.952748
                                                         0.330796      -0.171270
[...]

 !-----------------------------------------------------------------------------!

 !-----------------------------------------------------------------------------!
                           Hirshfeld Charges

  #Atom  Element  Kind  Ref Charge     Population       Spin moment  Net charge
      1       Pt     1      18.000    9.051   8.960            0.090     -0.011
      2       Pt     1      18.000    9.038   8.966            0.072     -0.003
      3       Pt     1      18.000    9.056   8.935            0.121      0.009
      4       Pt     1      18.000    9.056   8.935            0.121      0.008
      5       Pt     1      18.000    9.050   8.955            0.095     -0.006
      6       Pt     1      18.000    9.038   8.962            0.075      0.000
      7       Pt     1      18.000    9.049   8.953            0.096     -0.003
      8       Pt     1      18.000    9.037   8.960            0.077      0.003
      9       Pt     1      18.000    9.059   8.929            0.130      0.012
     10       Pt     1      18.000    9.059   8.929            0.130      0.012
     11       Pt     1      18.000    9.060   8.926            0.134      0.014
     12       Pt     1      18.000    9.060   8.926            0.134      0.014
     13       Ni     2      18.000    9.488   8.692            0.796     -0.180
     14       Ni     2      18.000    9.486   8.696            0.789     -0.182
     15       Ni     2      18.000    9.484   8.698            0.786     -0.182
     16       Ni     2      18.000    9.498   8.669            0.830     -0.167
     17       Pt     3      18.000    9.040   8.858            0.182      0.102
     18       Pt     3      18.000    9.040   8.857            0.183      0.103
     19       Ni     2      18.000    9.498   8.669            0.829     -0.166
     20       Ni     2      18.000    9.496   8.671            0.825     -0.167
     21       Pt     3      18.000    9.039   8.858            0.182      0.103
     22       Pt     3      18.000    9.040   8.855            0.185      0.105
     23       Pt     3      18.000    9.039   8.856            0.183      0.104
     24       Pt     3      18.000    9.040   8.855            0.185      0.106
     25       Pt     4      18.000    9.049   8.835            0.214      0.116
     26       Pt     4      18.000    9.019   8.874            0.145      0.107
     27       Ni     5      18.000    9.402   8.774            0.628     -0.177
     28       Pt     4      18.000    9.049   8.836            0.213      0.115
     29       Pt     4      18.000    9.049   8.834            0.214      0.117
     30       Pt     4      18.000    9.049   8.835            0.214      0.116
     31       Ni     5      18.000    9.405   8.772            0.633     -0.177
     32       Pt     4      18.000    9.018   8.874            0.145      0.108
     33       Ni     5      18.000    9.398   8.780            0.618     -0.177
     34       Pt     4      18.000    9.049   8.836            0.213      0.115
     35       Pt     4      18.000    9.049   8.834            0.215      0.117
     36       Pt     4      18.000    9.018   8.873            0.146      0.109
     37       Pt     6      18.000    9.038   8.850            0.188      0.112
     38       Pt     6      18.000    9.037   8.851            0.186      0.111
     39       Pt     6      18.000    9.038   8.850            0.188      0.112
     40       Pt     6      18.000    9.037   8.853            0.184      0.110
     41       Ni     7      18.000    9.497   8.650            0.847     -0.146
     42       Pt     6      18.000    9.038   8.852            0.186      0.110
     43       Ni     7      18.000    9.496   8.652            0.844     -0.148
     44       Pt     6      18.000    9.038   8.853            0.184      0.109
     45       Ni     7      18.000    9.498   8.648            0.850     -0.146
     46       Ni     7      18.000    9.483   8.677            0.806     -0.160
     47       Ni     7      18.000    9.487   8.674            0.813     -0.161
     48       Ni     7      18.000    9.485   8.676            0.809     -0.161
     49       Pt     8      18.000    9.058   8.920            0.137      0.022
     50       Pt     8      18.000    9.058   8.920            0.137      0.022
     51       Pt     8      18.000    9.057   8.924            0.133      0.020
     52       Pt     8      18.000    9.057   8.924            0.133      0.019
     53       Pt     8      18.000    9.035   8.954            0.081      0.011
     54       Pt     8      18.000    9.048   8.947            0.101      0.005
     55       Pt     8      18.000    9.036   8.956            0.079      0.008
     56       Pt     8      18.000    9.048   8.950            0.099      0.002
     57       Pt     8      18.000    9.054   8.930            0.124      0.016
     58       Pt     8      18.000    9.054   8.930            0.124      0.016
     59       Pt     8      18.000    9.036   8.960            0.076      0.004
     60       Pt     8      18.000    9.049   8.955            0.094     -0.003

  Total Charge                                                            0.000
 !-----------------------------------------------------------------------------!

 ENERGY| Total FORCE_EVAL ( QS ) energy [a.u.]:            -7949.170760253577100

 -------------------------------------------------------------------------------
 -                                                                             -
 -                                DBCSR STATISTICS                             -
 -                                                                             -
 -------------------------------------------------------------------------------
 COUNTER                                    TOTAL       BLAS       SMM       ACC
 flops inhomo. stacks                           0       0.0%      0.0%      0.0%
 flops total                         0.000000E+00       0.0%      0.0%      0.0%
 flops max/rank                      0.000000E+00       0.0%      0.0%      0.0%
 matmuls inhomo. stacks                         0       0.0%      0.0%      0.0%
 matmuls total                                  0       0.0%      0.0%      0.0%
 number of processed stacks                     0       0.0%      0.0%      0.0%
 average stack size                                     0.0       0.0       0.0
 marketing flops                     0.000000E+00
 -------------------------------------------------------------------------------
 -                                                                             -
 -                      DBCSR MESSAGE PASSING PERFORMANCE                      -
 -                                                                             -
 -------------------------------------------------------------------------------
 ROUTINE             CALLS      AVE VOLUME [Bytes]
 MP_Bcast                1                     12.
 MP_Allreduce         3399                      8.
 MP_Alltoall         40846                 200162.
 -------------------------------------------------------------------------------

 -------------------------------------------------------------------------------
 -                                                                             -
 -                                DBM STATISTICS                               -
 -                                                                             -
 -------------------------------------------------------------------------------
    M  x    N  x    K                                          COUNT     PERCENT
 -------------------------------------------------------------------------------

 -------------------------------------------------------------------------------
 -                                                                             -
 -                                GRID STATISTICS                              -
 -                                                                             -
 -------------------------------------------------------------------------------
 LP    KERNEL             BACKEND                              COUNT     PERCENT
 6     collocate general  REF                                2534476      49.89%
 6     integrate general  REF                                2353442      46.33%
 0     integrate general  REF                                 122880       2.42%
 0     collocate general  REF                                  69120       1.36%
 -------------------------------------------------------------------------------

 MEMORY| Estimated peak process memory [MiB]                                 669

 -------------------------------------------------------------------------------
 ----                             MULTIGRID INFO                            ----
 -------------------------------------------------------------------------------
 count for grid        1:       94284368          cutoff [a.u.]          250.00
 count for grid        2:       32801202          cutoff [a.u.]           83.33
 count for grid        3:       11988740          cutoff [a.u.]           27.78
 count for grid        4:        4024542          cutoff [a.u.]            9.26
 total gridlevel count  :      143098852

 -------------------------------------------------------------------------------
 -                                                                             -
 -                         MESSAGE PASSING PERFORMANCE                         -
 -                                                                             -
 -------------------------------------------------------------------------------

 ROUTINE             CALLS      AVE VOLUME [Bytes]
 MP_Group                5
 MP_Bcast            26020                 257997.
 MP_Allreduce         2325                   1507.
 MP_Sync                 4
 MP_Alltoall           697                2622846.
 MP_SendRecv          7112                  12120.
 MP_ISendRecv         6604                  12120.
 MP_Wait             44422
 MP_ISend            36936                  54809.
 MP_IRecv            41148                  48373.
 MP_Recv              8450                 537600.
 MP_Write_All            2                 168576.
 -------------------------------------------------------------------------------


 -------------------------------------------------------------------------------
 -                                                                             -
 -                           R E F E R E N C E S                               -
 -                                                                             -
 -------------------------------------------------------------------------------
 
 CP2K version 2023.1, the CP2K developers group (2023).
 CP2K is freely available from https://www.cp2k.org/ .

 Kuehne,Thomas D.; Iannuzzi,Marcella; Del Ben,Mauro;
 Rybkin,Vladimir V.; Seewald,Patrick; Stein,Frederick; Laino,Teodoro;
 Khaliullin,Rustam Z.; Schuett,Ole; Schiffmann,Florian; Golze,Dorothea;
 Wilhelm,Jan; Chulkov,Sergey; Bani-Hashemian,Mohammad Hossein;
 Weber,Valery; Borstnik,Urban; Taillefumier,Mathieu;
 Jakobovits,Alice Shoshana; Lazzaro,Alfio; Pabst,Hans; Mueller,Tiziano;
 Schade,Robert; Guidon,Manuel; Andermatt,Samuel; Holmberg,Nico;
 Schenter,Gregory K.; Hehn,Anna; Bussy,Augustin; Belleflamme,Fabian;
 Tabacchi,Gloria; Gloess,Andreas; Lass,Michael; Bethune,Iain;
 Mundy,Christopher J.; Plessl,Christian; Watkins,Matt;
 VandeVondele,Joost; Krack,Matthias; Hutter,Juerg. 
 The Journal of Chemical Physics, 152 (19), (2020). 
 CP2K: An electronic structure and molecular dynamics software package -
 Quickstep: Efficient and accurate electronic structure calculations.
 https://doi.org/10.1063/5.0007045

 Goerigk, Lars; Hansen, Andreas; Bauer, Christoph; Ehrlich, Stephan;
 Najibi, Asim; Grimme, Stefan. , 19 (48), (2017). 
 A look at the density functional theory zoo with the advanced GMTKN55 database
 for general main group thermochemistry, kinetics and noncovalent interactions.
 https://doi.org/10.1039/C7CP04913G

 Schuett, Ole; Messmer, Peter; Hutter, Juerg; VandeVondele, Joost. 
 Electronic Structure Calculations on Graphics Processing Units, John
 Wiley & Sons, Ltd, 173-190 (2016). 
 GPU-Accelerated Sparse Matrix-Matrix Multiplication for
 Linear Scaling Density Functional Theory.
 https://doi.org/10.1002/9781118670712.ch8

 Heinecke, A; Henry, G; Hutchinson, M; Pabst, H. 
 Proceedings of Intl. Supercomputing Conference, 981-991 (2016). 
 LIBXSMM: Accelerating Small Matrix Multiplications
 by Runtime Code Generation.
 https://doi.org/10.1109/SC.2016.83

 Borstnik, U; VandeVondele, J; Weber, V; Hutter, J. 
 PARALLEL COMPUTING, 40 (5-6), 47-58 (2014). 
 Sparse matrix multiplication: The distributed block-compressed sparse
 row library.
 https://doi.org/10.1016/j.parco.2014.03.012

 Hutter, J; Iannuzzi, M; Schiffmann, F; VandeVondele, J. 
 WIREs Comput Mol Sci., 4 (1), 15-25 (2014). 
 CP2K: atomistic simulations of condensed matter systems.
 https://doi.org/10.1002/wcms.1159

 Marek, A; Blum, V; Johanni, R; Havu, V; Lang, B; Auckenthaler, T;
 Heinecke, A; Bungartz, H; Lederer, H. 
 Journal of Physics: Condensed Matter, 26 (21), (2014). 
 The ELPA library: scalable parallel eigenvalue solutions for
 electronic structure
 theory and computational science.
 https://doi.org/10.1088/0953-8984/26/21/213201

 Grimme, S; Ehrlich, S; Goerigk, L. 
 JOURNAL OF COMPUTATIONAL CHEMISTRY, 32, 1456 (2011). 
 Effect of the damping function in dispersion corrected density functional theory.
 https://doi.org/10.1002/jcc.21759

 Grimme, S; Antony, J; Ehrlich, S; Krieg, H. 
 JOURNAL OF CHEMICAL PHYSICS, 132 (15), 154104 (2010). 
 A consistent and accurate ab initio parametrization of density
 functional dispersion correction (DFT-D) for the 94 elements H-Pu.
 https://doi.org/10.1063/1.3382344

 VandeVondele, J; Hutter, J. 
 JOURNAL OF CHEMICAL PHYSICS, 127 (11), 114105 (2007). 
 Gaussian basis sets for accurate calculations on molecular systems in
 gas and condensed phases.
 https://doi.org/10.1063/1.2770708

 Krack, M. 
 THEORETICAL CHEMISTRY ACCOUNTS, 114 (1-3), 145-152 (2005). 
 Pseudopotentials for H to Kr optimized for gradient-corrected
 exchange-correlation functionals.
 https://doi.org/10.1007/s00214-005-0655-y

 VandeVondele, J; Krack, M; Mohamed, F; Parrinello, M; Chassaing, T;
 Hutter, J. COMPUTER PHYSICS COMMUNICATIONS, 167 (2), 103-128 (2005). 
 QUICKSTEP: Fast and accurate density functional calculations using a
 mixed Gaussian and plane waves approach.
 https://doi.org/10.1016/j.cpc.2004.12.014

 Frigo, M; Johnson, SG. 
 PROCEEDINGS OF THE IEEE, 93 (2), 216-231 (2005). 
 The design and implementation of FFTW3.
 https://doi.org/10.1109/JPROC.2004.840301

 Hartwigsen, C; Goedecker, S; Hutter, J. 
 PHYSICAL REVIEW B, 58 (7), 3641-3662 (1998). 
 Relativistic separable dual-space Gaussian pseudopotentials from H to Rn.
 https://doi.org/10.1103/PhysRevB.58.3641

 Lippert, G; Hutter, J; Parrinello, M. 
 MOLECULAR PHYSICS, 92 (3), 477-487 (1997). 
 A hybrid Gaussian and plane wave density functional scheme.
 https://doi.org/10.1080/002689797170220

 Perdew, JP; Burke, K; Ernzerhof, M. 
 PHYSICAL REVIEW LETTERS, 77 (18), 3865-3868 (1996). 
 Generalized gradient approximation made simple.
 https://doi.org/10.1103/PhysRevLett.77.3865

 Goedecker, S; Teter, M; Hutter, J. 
 PHYSICAL REVIEW B, 54 (3), 1703-1710 (1996). 
 Separable dual-space Gaussian pseudopotentials.
 https://doi.org/10.1103/PhysRevB.54.1703


 -------------------------------------------------------------------------------
 -                                                                             -
 -                                T I M I N G                                  -
 -                                                                             -
 -------------------------------------------------------------------------------
 SUBROUTINE                       CALLS  ASD         SELF TIME        TOTAL TIME
                                MAXIMUM       AVERAGE  MAXIMUM  AVERAGE  MAXIMUM
 CP2K                                 1  1.0    0.029    0.031  422.282  422.283
 qs_energies                          1  2.0    0.001    0.001  421.267  421.267
 scf_env_do_scf                       1  3.0    0.000    0.022  401.956  401.991
 scf_env_do_scf_inner_loop           13  4.0    0.005    0.006  401.925  401.961
 qs_scf_new_mos_kp                   13  5.0    0.000    0.000  312.895  312.927
 do_general_diag_kp                  13  6.0    0.025    0.027  312.895  312.927
 cp_cfm_geeig                       234  7.0    0.007    0.008  288.085  288.287
 cp_cfm_heevd                       234  8.0  158.523  161.857  158.523  161.857
 cp_cfm_triangular_multiply         702  8.0  103.875  106.253  103.875  106.253
 qs_ks_update_qs_env                 13  5.0    0.000    0.000   46.184   46.204
 rebuild_ks_matrix                   13  6.0    0.001    0.002   45.699   45.720
 qs_ks_build_kohn_sham_matrix        13  7.0    0.041    0.043   45.698   45.718
 sum_up_and_integrate                13  8.0    0.021    0.025   42.546   42.675
 integrate_v_rspace                  26  9.0    0.001    0.002   42.525   42.656
 mp_alltoall_d11v                 20880  9.4   36.717   42.096   36.717   42.096
 grid_integrate_task_list            26 10.0    7.783   39.921    7.783   39.921
 qs_rho_update_rho_low               14  5.0    0.000    0.000   37.571   37.709
 calculate_rho_elec                  28  6.0    0.009    0.010   37.570   37.708
 rs_gather_matrices                  26 10.0    0.047    0.081   32.323   37.353
 rs_pw_transfer                     220  9.4    0.004    0.005   31.092   35.681
 grid_collocate_task_list            28  7.0    7.574   35.026    7.574   35.026
 density_rs2pw                       28  7.0    0.001    0.002   29.547   34.110
 mp_waitany                       21492 11.4   29.209   33.968   29.209   33.968
 rs_pw_transfer_RS2PW_250            30  8.9    0.215    0.379   28.409   32.996
 init_scf_run                         1  3.0    0.000    0.000   17.783   17.799
 scf_env_initial_rho_setup            1  4.0    0.001    0.002   17.783   17.798
 cp_cfm_cholesky_decompose          234  8.0   15.426   15.797   15.426   15.797
 calculate_first_density_matrix       1  5.0    0.002    0.002   14.856   14.872
 read_kpoints_restart                 1  6.0    0.001    0.002   14.836   14.837
 mp_bcast_im                      14196  8.1   14.643   14.689   14.643   14.689
 cp_fm_read_unformatted             130  7.0    0.042    2.684   14.662   14.682
 copy_dbcsr_to_fm                  2002  6.9    0.028    0.035   10.468   12.405
 cp_cfm_triangular_invert           234  8.0   10.215   10.322   10.215   10.322
 dbcsr_desymmetrize_deep           3874  7.5    0.421    0.599    7.727    9.745
 mp_alltoall_i22                   6942  8.8    6.460    9.089    6.460    9.089
 -------------------------------------------------------------------------------

 The number of warnings for this run is : 3
 
 -------------------------------------------------------------------------------
  **** **** ******  **  PROGRAM ENDED AT                 2023-05-11 22:17:02.606
 ***** ** ***  *** **   PROGRAM RAN ON                                 nid002241
 **    ****   ******    PROGRAM RAN BY                                    cahart
 ***** **    ** ** **   PROGRAM PROCESS ID                                258291
  **** **  *******  **  PROGRAM STOPPED IN /mnt/lustre/a2fs-work2/work/e05/e05/c
                                           ahart/postdoc/masters/pt3ni/yike-111/
                                           fm/Ni-2_Pt-0/multiple-restarts/scf-1e
                                           -2_runs-21/pbe-d3_tzvp-kpoints/raw_of
                                           ficial_4e-2_4e-3_16_100_2000_6-6-1/sc
                                           f-1E-3
