      60
 i =        1, E =     -7949.3126697569
 Pt        -3.0942408632        5.4137573825        8.0949980305
 Pt         1.5943782822        5.4134543933        8.1136796428
 Pt        -0.7341401871        1.3530909188        8.1617179614
 Pt         3.9546130108        1.3540180545        8.1615068691
 Pt         1.5883477094        2.7056042734        8.1282555602
 Pt         6.2770152870        2.7066029758        8.1248192071
 Pt         6.2725861507       -0.0008045101        8.1451831631
 Pt         1.5832708139       -0.0014634588        8.1346241128
 Pt        -0.7283786059        6.7636552523        8.1788718325
 Pt         3.9640053397        6.7655724076        8.1843322571
 Pt        -0.7232490805        4.0632055348        8.1944373827
 Pt         3.9686724194        4.0608210269        8.1975353490
 Ni         0.0349189246        5.4329441833       10.3803664279
 Ni         4.7273826535        2.6949168273       10.3787377273
 Ni         0.0359362786        0.0223518566       10.3792487793
 Ni         4.7061500181        5.4218878290       10.3850196277
 Pt        -2.3225515078        4.0509947220       10.3803596054
 Pt        -2.3160263442        6.7765947925       10.3810782034
 Ni         0.0137338789        2.7100904871       10.3828342519
 Ni         4.6890618355        0.0083212412       10.3803254179
 Pt         2.3713462548        4.0797927267       10.3852121231
 Pt         2.3922763709        1.3373857200       10.3888352454
 Pt         2.3816979512        6.7469218255       10.3858636411
 Pt         7.0831766185        1.3763698638       10.3888018209
 Pt        -3.9055426180        6.7694469813       12.5314719544
 Pt        -1.5628986728        5.4079301595       12.5304820001
 Ni        -1.5563567152        2.6973819749       12.5288098000
 Pt         0.7834837551        4.0626838756       12.5296213733
 Pt         0.7825474708        1.3543100368       12.5331291135
 Pt         0.7796702731        6.7711296220       12.5322891780
 Ni         3.1113329349       -0.0043738243       12.5284714329
 Pt         3.1269642374        2.7150419797       12.5304956249
 Ni         3.1332163095        5.4256293741       12.5295706521
 Pt         5.4740303536        4.0589090272       12.5296637620
 Pt         5.4676656405        1.3524700811       12.5313036448
 Pt         7.8159917239       -0.0033590880       12.5292155324
 Pt        -0.8218983645        1.3770944903       14.6732340944
 Pt         3.8768482097        6.7461294783       14.6754204322
 Pt         3.8643432903        1.3349521653       14.6723933284
 Pt         3.8870218820        4.0787102153       14.6762269403
 Ni         6.2518864302        2.7005628675       14.6804510492
 Pt        -0.8069054464        6.7790606622       14.6777967070
 Ni         1.5691505187        0.0064158915       14.6841795158
 Pt        -0.7976051360        4.0500117250       14.6791157933
 Ni         1.5534475848        5.4214397690       14.6793029023
 Ni         6.2401079332        0.0216326803       14.6834665908
 Ni        -3.1580283007        5.4152002011       14.6810489237
 Ni         1.5406231293        2.7017341269       14.6818336208
 Pt         2.2962215342        4.0612094962       16.8668559728
 Pt        -2.3904227704        4.0630539839       16.8679977385
 Pt         2.3005915152        6.7658249941       16.8800456259
 Pt        -2.3860021100        6.7636239860       16.8834769253
 Pt         4.6813515215       -0.0010351576       16.9246036646
 Pt        -0.0080852806       -0.0003034269       16.9152861048
 Pt        -0.0124970054        2.7066598256       16.9340289676
 Pt         4.6760307270        2.7060690638       16.9316036891
 Pt         6.9981754654        1.3534408327       16.9038170338
 Pt         2.3091549360        1.3552518923       16.9051698831
 Pt         4.6697211201        5.4141092419       16.9463186935
 Pt        -0.0191888424        5.4139105597       16.9610439026
      60
 i =        2, E =     -7949.3139272923
 Pt        -3.1013829159        5.4143993484        8.1094187227
 Pt         1.5901180513        5.4149059079        8.1181147555
 Pt        -0.7267555103        1.3537615143        8.1743516934
 Pt         3.9615337445        1.3527682417        8.1736915335
 Pt         1.5878438361        2.7057524662        8.1171290091
 Pt         6.2794042594        2.7055126778        8.1102953921
 Pt         6.2758653106       -0.0001612598        8.1182828188
 Pt         1.5900396161       -0.0000222904        8.1062330292
 Pt        -0.7271319830        6.7680200940        8.1738287882
 Pt         3.9636314487        6.7680607257        8.1768291785
 Pt        -0.7258340382        4.0613855573        8.1747434204
 Pt         3.9642446647        4.0602161233        8.1772036783
 Ni         0.0361580124        5.4295150462       10.3802936447
 Ni         4.7275955562        2.6960050209       10.3798261589
 Ni         0.0414155989        0.0146763079       10.3796056167
 Ni         4.7046818486        5.4196501735       10.3864660208
 Pt        -2.3155583843        4.0468045234       10.3771530510
 Pt        -2.3128090937        6.7841768844       10.3787676627
 Ni         0.0074307621        2.7062765864       10.3869338180
 Ni         4.6979615499        0.0152897741       10.3882864252
 Pt         2.3768484976        4.0771989568       10.3800630818
 Pt         2.3826763569        1.3379376043       10.3831185389
 Pt         2.3807045407        6.7557326242       10.3831681067
 Pt         7.0743289693        1.3704475943       10.3829731447
 Pt        -3.9043331721        6.7689598408       12.5322744698
 Pt        -1.5612892787        5.4117092388       12.5304811489
 Ni        -1.5573768588        2.7045179488       12.5250618253
 Pt         0.7842140388        4.0640479886       12.5293619975
 Pt         0.7864278898        1.3564200862       12.5326839749
 Pt         0.7832326740        6.7720773894       12.5323164720
 Ni         3.1225761872       -0.0070108830       12.5252666473
 Pt         3.1282041069        2.7124012193       12.5313712108
 Ni         3.1309969478        5.4190432343       12.5257712101
 Pt         5.4741308453        4.0596249429       12.5303819630
 Pt         5.4716468650        1.3534553879       12.5305078976
 Pt         7.8179951610       -0.0011364181       12.5316389986
 Pt        -0.8118024206        1.3723338237       14.6775742882
 Pt         3.8780990589        6.7529678600       14.6782156760
 Pt         3.8721051282        1.3357974407       14.6773023324
 Pt         3.8820049588        4.0772716649       14.6788992505
 Ni         6.2452791763        2.6990938440       14.6779667623
 Pt        -0.8066714810        6.7846087151       14.6812021936
 Ni         1.5682287478        0.0092624293       14.6759927260
 Pt        -0.8059776425        4.0457304809       14.6806046703
 Ni         1.5506009246        5.4214987532       14.6788495910
 Ni         6.2365957844        0.0261416189       14.6851189781
 Ni        -3.1519539637        5.4137850636       14.6855750575
 Ni         1.5369257270        2.7138443824       14.6857688979
 Pt         2.3007077041        4.0612762407       16.8883886249
 Pt        -2.3875783467        4.0603759551       16.8885677701
 Pt         2.3000486449        6.7682327826       16.8871150515
 Pt        -2.3869994455        6.7677929920       16.8891667607
 Pt         4.6742295540       -0.0000868589       16.9510876713
 Pt        -0.0114077313       -0.0000282864       16.9434763032
 Pt        -0.0152558893        2.7060796935       16.9497744180
 Pt         4.6755518837        2.7052430402       16.9435789669
 Pt         6.9915658343        1.3543831413       16.8912986781
 Pt         2.3027395911        1.3527227044       16.8896954307
 Pt         4.6737165015        5.4144580781       16.9430060302
 Pt        -0.0132710970        5.4148503372       16.9490268444
      60
 i =        3, E =     -7949.3141998042
 Pt        -3.1007880746        5.4145983910        8.1102317330
 Pt         1.5908733422        5.4149871169        8.1139158593
 Pt        -0.7246569781        1.3532363927        8.1730215411
 Pt         3.9633677954        1.3536829698        8.1720632325
 Pt         1.5892538298        2.7075178819        8.1107559508
 Pt         6.2814862428        2.7065266312        8.1058244862
 Pt         6.2793873332       -0.0003001518        8.1078039487
 Pt         1.5931134200        0.0003167398        8.1019194691
 Pt        -0.7261521314        6.7695123700        8.1714380039
 Pt         3.9631053893        6.7695075429        8.1729631224
 Pt        -0.7269462130        4.0614012327        8.1696574079
 Pt         3.9621887648        4.0598577844        8.1714861336
 Ni         0.0363835340        5.4302905253       10.3775129669
 Ni         4.7264785379        2.6949875814       10.3773685164
 Ni         0.0362508609        0.0131046995       10.3777286281
 Ni         4.7019463416        5.4203748473       10.3850674892
 Pt        -2.3119799224        4.0459872967       10.3785271633
 Pt        -2.3111611983        6.7863581607       10.3770103835
 Ni         0.0077205071        2.7068017038       10.3853822498
 Ni         4.7093675826        0.0227112217       10.3869216932
 Pt         2.3794775305        4.0774409750       10.3808427368
 Pt         2.3779875581        1.3383889089       10.3793498324
 Pt         2.3796621813        6.7564551774       10.3810140405
 Pt         7.0696839139        1.3701932293       10.3797762824
 Pt        -3.9034963523        6.7696334211       12.5320647989
 Pt        -1.5599099223        5.4132127802       12.5299536311
 Ni        -1.5516721860        2.7003754463       12.5190509070
 Pt         0.7860078889        4.0651897133       12.5295439404
 Pt         0.7871749334        1.3561823855       12.5322797000
 Pt         0.7842498231        6.7734148238       12.5322913501
 Ni         3.1174622539       -0.0087644703       12.5187347232
 Pt         3.1287876037        2.7105622311       12.5299897090
 Ni         3.1354693231        5.4232566166       12.5205315632
 Pt         5.4755721696        4.0602762413       12.5300255880
 Pt         5.4722735972        1.3549042055       12.5314819628
 Pt         7.8195310652        0.0012334683       12.5322262171
 Pt        -0.8064341953        1.3718199512       14.6810275632
 Pt         3.8790075030        6.7548882254       14.6802391561
 Pt         3.8780376486        1.3367683757       14.6770661663
 Pt         3.8783768275        4.0790869679       14.6786117232
 Ni         6.2424377351        2.7027765874       14.6772255304
 Pt        -0.8067566045        6.7869066409       14.6801759982
 Ni         1.5676773066        0.0105419470       14.6783409133
 Pt        -0.8104085961        4.0435336026       14.6794466676
 Ni         1.5489383923        5.4190968050       14.6776374600
 Ni         6.2326619524        0.0280138704       14.6870060224
 Ni        -3.1505698673        5.4159046808       14.6873017452
 Ni         1.5377517005        2.7107698694       14.6876680894
 Pt         2.3020049311        4.0610703876       16.8942374866
 Pt        -2.3873651274        4.0603527707       16.8945164088
 Pt         2.3007086735        6.7696063331       16.8898428398
 Pt        -2.3875862193        6.7681943097       16.8922778956
 Pt         4.6707724510        0.0003235996       16.9563597497
 Pt        -0.0150315490       -0.0003706327       16.9522297330
 Pt        -0.0170788783        2.7072576459       16.9544912035
 Pt         4.6737007508        2.7068860284       16.9504229429
 Pt         6.9898825814        1.3541356695       16.8922750178
 Pt         2.3001185536        1.3540044593       16.8902716596
 Pt         4.6732428733        5.4144958086       16.9471713070
 Pt        -0.0141459983        5.4146351197       16.9499836658
      60
 i =        4, E =     -7949.3143488930
 Pt        -3.0985035836        5.4150516711        8.1081818618
 Pt         1.5925521086        5.4150134367        8.1080392706
 Pt        -0.7236731641        1.3538139828        8.1681798367
 Pt         3.9644972571        1.3549302321        8.1673000855
 Pt         1.5908174000        2.7092508244        8.1057946134
 Pt         6.2826730817        2.7086296008        8.1040370681
 Pt         6.2822270310        0.0000491246        8.1011687349
 Pt         1.5944168409        0.0003538228        8.1024430903
 Pt        -0.7244366448        6.7699170556        8.1693518108
 Pt         3.9642465305        6.7697353095        8.1696144444
 Pt        -0.7258478341        4.0626125666        8.1685846274
 Pt         3.9632510601        4.0604635940        8.1693823281
 Ni         0.0374320085        5.4298079656       10.3761986496
 Ni         4.7253628172        2.6933066274       10.3756756657
 Ni         0.0335415913        0.0120518179       10.3762395029
 Ni         4.6995765581        5.4193459733       10.3848195882
 Pt        -2.3095542812        4.0469928112       10.3768145442
 Pt        -2.3101376572        6.7858273703       10.3751572202
 Ni         0.0091475697        2.7073432276       10.3842522484
 Ni         4.7200992209        0.0224900981       10.3824824221
 Pt         2.3804456503        4.0783294010       10.3778344479
 Pt         2.3761319878        1.3401100021       10.3751065598
 Pt         2.3797510476        6.7567148264       10.3778732193
 Pt         7.0673033869        1.3705345669       10.3760504261
 Pt        -3.9028397599        6.7702126564       12.5317189372
 Pt        -1.5585982388        5.4163360980       12.5288548395
 Ni        -1.5490959939        2.7051807653       12.5097722191
 Pt         0.7875070293        4.0655686447       12.5304447932
 Pt         0.7873266836        1.3563295755       12.5317507671
 Pt         0.7865369535        6.7739582540       12.5325782022
 Ni         3.1199541258       -0.0081814291       12.5089099099
 Pt         3.1296429183        2.7081039786       12.5284712336
 Ni         3.1364601843        5.4199304555       12.5116443241
 Pt         5.4761515642        4.0617461093       12.5301959793
 Pt         5.4747508402        1.3572082596       12.5311350678
 Pt         7.8197739031        0.0034382718       12.5316676076
 Pt        -0.8038697549        1.3728218617       14.6830715308
 Pt         3.8793862879        6.7546321431       14.6810612766
 Pt         3.8809610796        1.3388119460       14.6788194642
 Pt         3.8751815081        4.0814270565       14.6786654760
 Ni         6.2375368049        2.7059533460       14.6788318205
 Pt        -0.8079617985        6.7874236996       14.6800230408
 Ni         1.5687223690        0.0119487040       14.6785606836
 Pt        -0.8135890315        4.0429872435       14.6790190917
 Ni         1.5461056537        5.4186347848       14.6784984184
 Ni         6.2267899423        0.0301492503       14.6876497700
 Ni        -3.1508163306        5.4166911562       14.6877309387
 Ni         1.5386886015        2.7068342884       14.6881847554
 Pt         2.3006501350        4.0615194524       16.8954457531
 Pt        -2.3887266949        4.0612956449       16.8960238994
 Pt         2.2992923406        6.7703923740       16.8913784347
 Pt        -2.3888730362        6.7684435835       16.8938595397
 Pt         4.6688157860        0.0004947620       16.9558961611
 Pt        -0.0173507904       -0.0003484183       16.9571230541
 Pt        -0.0186475119        2.7089769416       16.9563490482
 Pt         4.6711303727        2.7088646649       16.9546255225
 Pt         6.9886168843        1.3544353471       16.8961498204
 Pt         2.2990114302        1.3552981178       16.8937314956
 Pt         4.6709407973        5.4147849606       16.9523207217
 Pt        -0.0169539971        5.4147390783       16.9524574805
      60
 i =        5, E =     -7949.3144097508
 Pt        -3.0967291929        5.4157957970        8.1047720432
 Pt         1.5943596857        5.4156941842        8.1044444359
 Pt        -0.7234682880        1.3546728737        8.1646000612
 Pt         3.9651894134        1.3547129217        8.1641406440
 Pt         1.5917087276        2.7092752688        8.1039219190
 Pt         6.2831928059        2.7092518888        8.1038826193
 Pt         6.2825001154        0.0009283202        8.1007028489
 Pt         1.5941007830        0.0009287242        8.1041893877
 Pt        -0.7227335681        6.7706088398        8.1684427068
 Pt         3.9659723008        6.7699372446        8.1683481010
 Pt        -0.7234391346        4.0633669790        8.1699678236
 Pt         3.9656234381        4.0612634103        8.1700117687
 Ni         0.0385553711        5.4293668946       10.3760417423
 Ni         4.7252767717        2.6931778855       10.3749935005
 Ni         0.0345377441        0.0124359148       10.3758597401
 Ni         4.6986426501        5.4187018895       10.3845573341
 Pt        -2.3098096994        4.0483905808       10.3761813878
 Pt        -2.3103914453        6.7854030033       10.3740500305
 Ni         0.0096054345        2.7067084506       10.3842184026
 Ni         4.7213260144        0.0152970516       10.3835022215
 Pt         2.3791347056        4.0782058303       10.3760818362
 Pt         2.3779870365        1.3406410931       10.3734418901
 Pt         2.3805232128        6.7571903669       10.3758385169
 Pt         7.0684596466        1.3708900851       10.3740722575
 Pt        -3.9025335933        6.7710544783       12.5313287760
 Pt        -1.5581058576        5.4168605762       12.5279216591
 Ni        -1.5457419123        2.7058879356       12.5064030623
 Pt         0.7886531557        4.0658345548       12.5303632386
 Pt         0.7879718551        1.3565359003       12.5311251882
 Pt         0.7880997904        6.7738991584       12.5331199417
 Ni         3.1210702921       -0.0064394546       12.5060846706
 Pt         3.1301209953        2.7084740717       12.5273331409
 Ni         3.1390468777        5.4201103841       12.5066161520
 Pt         5.4766790307        4.0624916809       12.5298297187
 Pt         5.4761401388        1.3580631798       12.5301755223
 Pt         7.8198416662        0.0039174233       12.5308669104
 Pt        -0.8057904013        1.3729139478       14.6832607570
 Pt         3.8788058934        6.7549086998       14.6808266048
 Pt         3.8791836069        1.3402565376       14.6792650225
 Pt         3.8743569016        4.0822522245       14.6779711533
 Ni         6.2339377839        2.7073900134       14.6788405250
 Pt        -0.8090757670        6.7874180298       14.6797162254
 Ni         1.5680792118        0.0131671155       14.6784819368
 Pt        -0.8141148699        4.0442691174       14.6786290814
 Ni         1.5449808827        5.4186497239       14.6784200890
 Ni         6.2232809172        0.0302479098       14.6873962537
 Ni        -3.1520008617        5.4166449012       14.6871442621
 Ni         1.5384098479        2.7066572405       14.6874487669
 Pt         2.2979007532        4.0625014816       16.8932856809
 Pt        -2.3911115244        4.0618283456       16.8938274907
 Pt         2.2974064647        6.7706052699       16.8903824780
 Pt        -2.3907184997        6.7690847952       16.8930627631
 Pt         4.6687413566        0.0010631077       16.9527475110
 Pt        -0.0180937925        0.0004194235       16.9551086153
 Pt        -0.0197695961        2.7091404483       16.9549424526
 Pt         4.6698217517        2.7094661895       16.9545045722
 Pt         6.9881022404        1.3553500070       16.8976465421
 Pt         2.2986964900        1.3554944323       16.8959519355
 Pt         4.6684909515        5.4157626168       16.9536947716
 Pt        -0.0191775317        5.4154377227       16.9540436962
      60
 i =        6, E =     -7949.3144411747
 Pt        -3.0956694339        5.4162916636        8.1028096692
 Pt         1.5957258085        5.4163322099        8.1034688768
 Pt        -0.7230927449        1.3555498852        8.1633964736
 Pt         3.9658373067        1.3547490979        8.1635485174
 Pt         1.5927456178        2.7090491970        8.1034695058
 Pt         6.2838847213        2.7093242807        8.1035930047
 Pt         6.2827990087        0.0016480033        8.1013579982
 Pt         1.5943137564        0.0016214665        8.1039275990
 Pt        -0.7217681955        6.7707653834        8.1683890625
 Pt         3.9672214085        6.7701749568        8.1679709041
 Pt        -0.7216499090        4.0637560204        8.1710578825
 Pt         3.9673287119        4.0617217251        8.1706185268
 Ni         0.0392564309        5.4302981001       10.3763143920
 Ni         4.7261099056        2.6946250083       10.3748810025
 Ni         0.0358259195        0.0132858973       10.3754863535
 Ni         4.6987169252        5.4184874349       10.3847485316
 Pt        -2.3106464021        4.0488253758       10.3749458890
 Pt        -2.3103239351        6.7856035818       10.3735210116
 Ni         0.0098303029        2.7064549410       10.3845714190
 Ni         4.7194310001        0.0125673797       10.3840716609
 Pt         2.3778290652        4.0780630550       10.3744164036
 Pt         2.3803016262        1.3403410354       10.3735768004
 Pt         2.3813279193        6.7569841922       10.3753663741
 Pt         7.0708784829        1.3715291479       10.3740311449
 Pt        -3.9024505656        6.7714882855       12.5308787690
 Pt        -1.5578375643        5.4167642471       12.5271941762
 Ni        -1.5454880240        2.7074649045       12.5078789324
 Pt         0.7888076138        4.0659297326       12.5298640268
 Pt         0.7882412341        1.3571152001       12.5307152223
 Pt         0.7887200417        6.7738306073       12.5327433778
 Ni         3.1213031218       -0.0047175392       12.5079038747
 Pt         3.1307071256        2.7096599775       12.5261664722
 Ni         3.1398946000        5.4185223227       12.5074659796
 Pt         5.4768872798        4.0626787794       12.5292389993
 Pt         5.4763174159        1.3579898453       12.5295768651
 Pt         7.8200279897        0.0035788173       12.5298143104
 Pt        -0.8087068324        1.3734659328       14.6813481077
 Pt         3.8778477021        6.7554772400       14.6796404397
 Pt         3.8765335630        1.3410694320       14.6781208096
 Pt         3.8749784166        4.0824004315       14.6776395443
 Ni         6.2324623488        2.7080443710       14.6791428244
 Pt        -0.8098332498        6.7877091431       14.6790984024
 Ni         1.5671580335        0.0142900770       14.6785264009
 Pt        -0.8132879468        4.0453915227       14.6784581228
 Ni         1.5443116335        5.4185798904       14.6789039000
 Ni         6.2217154411        0.0292476763       14.6866366394
 Ni        -3.1526176882        5.4164450815       14.6861454124
 Ni         1.5384217264        2.7082731219       14.6865612535
 Pt         2.2958229345        4.0631972482       16.8911156865
 Pt        -2.3930772512        4.0625276585       16.8914469401
 Pt         2.2957758906        6.7709147838       16.8886173115
 Pt        -2.3923382631        6.7695514369       16.8915028227
 Pt         4.6680623893        0.0018841831       16.9509498828
 Pt        -0.0187318618        0.0013451846       16.9520402775
 Pt        -0.0210497444        2.7091855283       16.9530787219
 Pt         4.6686176332        2.7097098133       16.9526362741
 Pt         6.9870189878        1.3562465633       16.8965031983
 Pt         2.2978781684        1.3558465273       16.8959232042
 Pt         4.6667304346        5.4165310023       16.9521147728
 Pt        -0.0208464911        5.4161369808       16.9536549908
      60
 i =        7, E =     -7949.3144672282
 Pt        -3.0940708292        5.4171291603        8.1015056438
 Pt         1.5974661544        5.4173318651        8.1019662951
 Pt        -0.7213666150        1.3564641233        8.1625286548
 Pt         3.9678028608        1.3552450895        8.1635516190
 Pt         1.5946596958        2.7093074357        8.1016486695
 Pt         6.2856776384        2.7097884899        8.1018418003
 Pt         6.2846179266        0.0025609957        8.0998842813
 Pt         1.5959676810        0.0024619600        8.1014496312
 Pt        -0.7200752833        6.7713723688        8.1679064577
 Pt         3.9689804753        6.7710580549        8.1668289751
 Pt        -0.7196617816        4.0644612772        8.1706178306
 Pt         3.9692044016        4.0623199003        8.1696338601
 Ni         0.0400101386        5.4305168443       10.3762523719
 Ni         4.7273558448        2.6949350650       10.3746413058
 Ni         0.0365306536        0.0140536871       10.3749050991
 Ni         4.6988404807        5.4181411386       10.3840926266
 Pt        -2.3110496767        4.0495302914       10.3730442441
 Pt        -2.3096529553        6.7864059369       10.3720836624
 Ni         0.0102224030        2.7062572037       10.3839818779
 Ni         4.7212391380        0.0103404319       10.3837269491
 Pt         2.3771111985        4.0778451265       10.3719160532
 Pt         2.3822173487        1.3402573701       10.3722984427
 Pt         2.3823766354        6.7571661486       10.3738872389
 Pt         7.0729534314        1.3720458518       10.3728982419
 Pt        -3.9017890957        6.7720913715       12.5299899630
 Pt        -1.5574481926        5.4172886990       12.5259123393
 Ni        -1.5445534397        2.7088938343       12.5067101415
 Pt         0.7893202557        4.0663773150       12.5289835415
 Pt         0.7887343378        1.3580583082       12.5298021886
 Pt         0.7893961571        6.7739744596       12.5319917965
 Ni         3.1212821095       -0.0020334966       12.5065855949
 Pt         3.1313290243        2.7114455146       12.5243773230
 Ni         3.1417443502        5.4175984930       12.5061665873
 Pt         5.4777634471        4.0631900539       12.5281048575
 Pt         5.4767739008        1.3581168262       12.5286430233
 Pt         7.8202162642        0.0036448572       12.5283498611
 Pt        -0.8115913458        1.3746011185       14.6788259231
 Pt         3.8763893752        6.7565584794       14.6779101244
 Pt         3.8741839049        1.3418873385       14.6762042240
 Pt         3.8748788191        4.0831802778       14.6764696140
 Ni         6.2304569859        2.7095069837       14.6784855678
 Pt        -0.8110845424        6.7891130146       14.6774936669
 Ni         1.5662875195        0.0161359722       14.6776354831
 Pt        -0.8133106613        4.0462482872       14.6773818288
 Ni         1.5430625825        5.4181287256       14.6783910951
 Ni         6.2182852849        0.0290174201       14.6859355543
 Ni        -3.1527996018        5.4166783760       14.6855207225
 Ni         1.5383501245        2.7094612472       14.6860849056
 Pt         2.2932213407        4.0642842618       16.8899333601
 Pt        -2.3956196536        4.0635715345       16.8899610502
 Pt         2.2931006127        6.7719750038       16.8866289356
 Pt        -2.3948530243        6.7707517256       16.8899194011
 Pt         4.6653446257        0.0031002875       16.9506818332
 Pt        -0.0210377958        0.0026867808       16.9502550609
 Pt        -0.0237228413        2.7098676288       16.9518221253
 Pt         4.6661080444        2.7104821778       16.9517230001
 Pt         6.9842935973        1.3574375122       16.8939425420
 Pt         2.2954597729        1.3567579284       16.8948103543
 Pt         4.6642288040        5.4178412007       16.9500984408
 Pt        -0.0233293451        5.4173529837       16.9525462944
      60
 i =        8, E =     -7949.3144968060
 Pt        -3.0916781807        5.4183562417        8.0998078684
 Pt         1.5999418478        5.4184327751        8.1001098232
 Pt        -0.7180021670        1.3575122138        8.1616941727
 Pt         3.9712529772        1.3562233572        8.1636690597
 Pt         1.5974840046        2.7101105756        8.0991411135
 Pt         6.2887597938        2.7107846218        8.0992708952
 Pt         6.2877144459        0.0035527992        8.0982658591
 Pt         1.5992798812        0.0033771331        8.0981161792
 Pt        -0.7173848038        6.7723368780        8.1669400807
 Pt         3.9717025172        6.7721968923        8.1655462493
 Pt        -0.7171901165        4.0654304225        8.1693469053
 Pt         3.9716772387        4.0633583902        8.1681542191
 Ni         0.0407058198        5.4300504768       10.3752580037
 Ni         4.7293621887        2.6946183338       10.3737470477
 Ni         0.0362899402        0.0151621807       10.3737154712
 Ni         4.6995622046        5.4186423784       10.3837916037
 Pt        -2.3108704845        4.0503981623       10.3710329177
 Pt        -2.3089003327        6.7876192038       10.3705847799
 Ni         0.0107114047        2.7062690020       10.3835300601
 Ni         4.7217927885        0.0083342577       10.3832161612
 Pt         2.3773344405        4.0782012968       10.3694649178
 Pt         2.3835243954        1.3408502608       10.3705533211
 Pt         2.3835953484        6.7572840854       10.3723060318
 Pt         7.0745207272        1.3726730998       10.3714706214
 Pt        -3.9007346226        6.7733798390       12.5286963580
 Pt        -1.5571067453        5.4185205949       12.5235189080
 Ni        -1.5445454037        2.7094060312       12.5059275453
 Pt         0.7896597292        4.0673039173       12.5275046257
 Pt         0.7891559765        1.3589749365       12.5282723246
 Pt         0.7896044288        6.7740971724       12.5303613298
 Ni         3.1209909564        0.0030723677       12.5061336843
 Pt         3.1318710060        2.7139160501       12.5216953026
 Ni         3.1427415478        5.4175166066       12.5058955468
 Pt         5.4790022864        4.0637642455       12.5267236779
 Pt         5.4771656446        1.3585947271       12.5271121385