 DBCSR| CPU Multiplication driver                                           XSMM (U)
 DBCSR| Multrec recursion limit                                              512 (U)
 DBCSR| Multiplication stack size                                           1000 (D)
 DBCSR| Maximum elements for images                                    UNLIMITED (U)
 DBCSR| Multiplicative factor virtual images                                   1 (U)
 DBCSR| Use multiplication densification                                       T (D)
 DBCSR| Multiplication size stacks                                             3 (U)
 DBCSR| Use memory pool for CPU allocation                                     F (U)
 DBCSR| Number of 3D layers                                               SINGLE (U)
 DBCSR| Use MPI memory allocation                                              F (U)
 DBCSR| Use RMA algorithm                                                      F (U)
 DBCSR| Use Communication thread                                               T (U)
 DBCSR| Communication thread load                                             87 (D)
 DBCSR| MPI: My process id                                                     0
 DBCSR| MPI: Number of processes                                             128
 DBCSR| OMP: Current number of threads                                         1
 DBCSR| OMP: Max number of threads                                             1
 DBCSR| Split modifier for TAS multiplication algorithm                  1.0E+00 (U)


  **** **** ******  **  PROGRAM STARTED AT               2023-02-06 17:16:20.541
 ***** ** ***  *** **   PROGRAM STARTED ON                             nid004704
 **    ****   ******    PROGRAM STARTED BY                                cahart
 ***** **    ** ** **   PROGRAM PROCESS ID                                 49173
  **** **  *******  **  PROGRAM STARTED IN /mnt/lustre/a2fs-work2/work/e05/e05/c
                                           ahart/postdoc/masters/ni/archer2/bulk
                                           /optimise/multiplicity-65_mos-30_temp
                                           -300/search/5.0E-02_4.0E-02

 CP2K| version string:                                       CP2K version 2023.1
 CP2K| source code revision number:                                  git:b888bd8
 CP2K| cp2kflags: omp libint fftw3 libxc elpa parallel scalapack xsmm plumed2 mk
 CP2K|            l
 CP2K| is freely available from                            https://www.cp2k.org/
 CP2K| Program compiled at                          Tue Jan 24 12:43:13 GMT 2023
 CP2K| Program compiled on                                                  ln03
 CP2K| Program compiled for                                              ARCHER2
 CP2K| Data directory path    /mnt/lustre/a2fs-work1/work/y07/shared/apps/core/c
 CP2K| Input file name                                                  cp2k.inp

 GLOBAL| Force Environment number                                              1
 GLOBAL| Basis set file name                                        BASIS_MOLOPT
 GLOBAL| Potential file name                                      GTH_POTENTIALS
 GLOBAL| MM Potential file name                                     MM_POTENTIAL
 GLOBAL| Coordinate file name                                      __STD_INPUT__
 GLOBAL| Method name                                                        CP2K
 GLOBAL| Project name                                                    Ni_bulk
 GLOBAL| Run type                                                         ENERGY
 GLOBAL| FFT library                                                       FFTW3
 GLOBAL| Diagonalization library                                            ELPA
 GLOBAL| DGEMM library                                                      BLAS
 GLOBAL| Minimum number of eigenvectors for ELPA usage                        16
 GLOBAL| Orthonormality check for eigenvectors                          DISABLED
 GLOBAL| Matrix multiplication library                                 ScaLAPACK
 GLOBAL| All-to-all communication in single precision                          F
 GLOBAL| FFTs using library dependent lengths                                  F
 GLOBAL| Grid backend                                                       AUTO
 GLOBAL| Global print level                                               MEDIUM
 GLOBAL| MPI I/O enabled                                                       T
 GLOBAL| Total number of message passing processes                           128
 GLOBAL| Number of threads for this process                                    1
 GLOBAL| This output is from process                                           0
 GLOBAL| Stack size for threads created by OpenMP (OMP_STACKSIZE)        default
 GLOBAL| CPU model name                          AMD EPYC 7742 64-Core Processor
 GLOBAL| CPUID                                                              1002

 MEMORY| system memory details [Kb]
 MEMORY|                        rank 0           min           max       average
 MEMORY| MemTotal            263528084     263528084     263528084     263528084
 MEMORY| MemFree             241403900     241403900     241403900     241403900
 MEMORY| Buffers                 24596         24596         24596         24596
 MEMORY| Cached                1116828       1116828       1116828       1116828
 MEMORY| Slab                  1672068       1672068       1672068       1672068
 MEMORY| SReclaimable           129552        129552        129552        129552
 MEMORY| MemLikelyFree       242674876     242674876     242674876     242674876


 *** Fundamental physical constants (SI units) ***

 *** Literature: B. J. Mohr and B. N. Taylor,
 ***             CODATA recommended values of the fundamental physical
 ***             constants: 2006, Web Version 5.1
 ***             http://physics.nist.gov/constants

 Speed of light in vacuum [m/s]                             2.99792458000000E+08
 Magnetic constant or permeability of vacuum [N/A**2]       1.25663706143592E-06
 Electric constant or permittivity of vacuum [F/m]          8.85418781762039E-12
 Planck constant (h) [J*s]                                  6.62606896000000E-34
 Planck constant (h-bar) [J*s]                              1.05457162825177E-34
 Elementary charge [C]                                      1.60217648700000E-19
 Electron mass [kg]                                         9.10938215000000E-31
 Electron g factor [ ]                                     -2.00231930436220E+00
 Proton mass [kg]                                           1.67262163700000E-27
 Fine-structure constant                                    7.29735253760000E-03
 Rydberg constant [1/m]                                     1.09737315685270E+07
 Avogadro constant [1/mol]                                  6.02214179000000E+23
 Boltzmann constant [J/K]                                   1.38065040000000E-23
 Atomic mass unit [kg]                                      1.66053878200000E-27
 Bohr radius [m]                                            5.29177208590000E-11

 *** Conversion factors ***

 [u] -> [a.u.]                                              1.82288848426455E+03
 [Angstrom] -> [Bohr] = [a.u.]                              1.88972613288564E+00
 [a.u.] = [Bohr] -> [Angstrom]                              5.29177208590000E-01
 [a.u.] -> [s]                                              2.41888432650478E-17
 [a.u.] -> [fs]                                             2.41888432650478E-02
 [a.u.] -> [J]                                              4.35974393937059E-18
 [a.u.] -> [N]                                              8.23872205491840E-08
 [a.u.] -> [K]                                              3.15774647902944E+05
 [a.u.] -> [kJ/mol]                                         2.62549961709828E+03
 [a.u.] -> [kcal/mol]                                       6.27509468713739E+02
 [a.u.] -> [Pa]                                             2.94210107994716E+13
 [a.u.] -> [bar]                                            2.94210107994716E+08
 [a.u.] -> [atm]                                            2.90362800883016E+08
 [a.u.] -> [eV]                                             2.72113838565563E+01
 [a.u.] -> [Hz]                                             6.57968392072181E+15
 [a.u.] -> [1/cm] (wave numbers)                            2.19474631370540E+05
 [a.u./Bohr**2] -> [1/cm]                                   5.14048714338585E+03
 

 CELL_TOP| Volume [angstrom^3]:                                       344.707437
 CELL_TOP| Vector a [angstrom     7.012     0.000     0.000   |a| =     7.011596
 CELL_TOP| Vector b [angstrom     0.000     7.012     0.000   |b| =     7.011596
 CELL_TOP| Vector c [angstrom     0.000     0.000     7.012   |c| =     7.011596
 CELL_TOP| Angle (b,c), alpha [degree]:                                90.000000
 CELL_TOP| Angle (a,c), beta  [degree]:                                90.000000
 CELL_TOP| Angle (a,b), gamma [degree]:                                90.000000
 CELL_TOP| Numerically orthorhombic:                                         YES
 CELL_TOP| Periodicity                                                       XYZ

 CELL_UC| Volume [angstrom^3]:                                         43.088430
 CELL_UC| Vector a [angstrom]     3.506     0.000     0.000   |a| =     3.505798
 CELL_UC| Vector b [angstrom]     0.000     3.506     0.000   |b| =     3.505798
 CELL_UC| Vector c [angstrom]     0.000     0.000     3.506   |c| =     3.505798
 CELL_UC| Angle (b,c), alpha [degree]:                                 90.000000
 CELL_UC| Angle (a,c), beta  [degree]:                                 90.000000
 CELL_UC| Angle (a,b), gamma [degree]:                                 90.000000
 CELL_UC| Numerically orthorhombic:                                          YES
 CELL_UC| Periodicity                                                        XYZ

 GENERATE|  Preliminary Number of Bonds generated:                             0
 GENERATE|  Achieved consistency in connectivity generation.

 CELL| Volume [angstrom^3]:                                           344.707437
 CELL| Vector a [angstrom]:       7.012     0.000     0.000   |a| =     7.011596
 CELL| Vector b [angstrom]:       0.000     7.012     0.000   |b| =     7.011596
 CELL| Vector c [angstrom]:       0.000     0.000     7.012   |c| =     7.011596
 CELL| Angle (b,c), alpha [degree]:                                    90.000000
 CELL| Angle (a,c), beta  [degree]:                                    90.000000
 CELL| Angle (a,b), gamma [degree]:                                    90.000000
 CELL| Numerically orthorhombic:                                             YES
 CELL| Periodicity                                                           XYZ

 CELL_REF| Volume [angstrom^3]:                                       344.707437
 CELL_REF| Vector a [angstrom     7.012     0.000     0.000   |a| =     7.011596
 CELL_REF| Vector b [angstrom     0.000     7.012     0.000   |b| =     7.011596
 CELL_REF| Vector c [angstrom     0.000     0.000     7.012   |c| =     7.011596
 CELL_REF| Angle (b,c), alpha [degree]:                                90.000000
 CELL_REF| Angle (a,c), beta  [degree]:                                90.000000
 CELL_REF| Angle (a,b), gamma [degree]:                                90.000000
 CELL_REF| Numerically orthorhombic:                                         YES
 CELL_REF| Periodicity                                                       XYZ

 *******************************************************************************
 *******************************************************************************
 **                                                                           **
 **     #####                         ##              ##                      **
 **    ##   ##            ##          ##              ##                      **
 **   ##     ##                       ##            ######                    **
 **   ##     ##  ##   ##  ##   #####  ##  ##   ####   ##    #####    #####    **
 **   ##     ##  ##   ##  ##  ##      ## ##   ##      ##   ##   ##  ##   ##   **
 **   ##  ## ##  ##   ##  ##  ##      ####     ###    ##   ######   ######    **
 **    ##  ###   ##   ##  ##  ##      ## ##      ##   ##   ##       ##        **
 **     #######   #####   ##   #####  ##  ##  ####    ##    #####   ##        **
 **           ##                                                    ##        **
 **                                                                           **
 **                                                ... make the atoms dance   **
 **                                                                           **
 **            Copyright (C) by CP2K developers group (2000-2022)             **
 **                      J. Chem. Phys. 152, 194103 (2020)                    **
 **                                                                           **
 *******************************************************************************

 DFT| Spin unrestricted (spin-polarized) Kohn-Sham calculation               UKS
 DFT| Multiplicity                                                            65
 DFT| Number of spin states                                                    2
 DFT| Charge                                                                   0
 DFT| Self-interaction correction (SIC)                                       NO
 DFT| Cutoffs: density                                              1.000000E-10
 DFT|          gradient                                             1.000000E-10
 DFT|          tau                                                  1.000000E-10
 DFT|          cutoff_smoothing_range                               0.000000E+00
 DFT| XC density smoothing                                                  NONE
 DFT| XC derivatives                                                          PW

 FUNCTIONAL| PBE:
 FUNCTIONAL| J.P.Perdew, K.Burke, M.Ernzerhof, Phys. Rev. Letter, vol. 77, n 18,
 FUNCTIONAL|  pp. 3865-3868, (1996){spin polarized}                             


 QS| Method:                                                                 GPW
 QS| Density plane wave grid type                        NON-SPHERICAL FULLSPACE
 QS| Number of grid levels:                                                    5
 QS| Density cutoff [a.u.]:                                                300.0
 QS| Multi grid cutoff [a.u.]: 1) grid level                               300.0
 QS|                           2) grid level                               100.0
 QS|                           3) grid level                                33.3
 QS|                           4) grid level                                11.1
 QS|                           5) grid level                                 3.7
 QS| Grid level progression factor:                                          3.0
 QS| Relative density cutoff [a.u.]:                                        30.0
 QS| Interaction thresholds: eps_pgf_orb:                                1.0E-06
 QS|                         eps_filter_matrix:                          0.0E+00
 QS|                         eps_core_charge:                            1.0E-14
 QS|                         eps_rho_gspace:                             1.0E-12
 QS|                         eps_rho_rspace:                             1.0E-12
 QS|                         eps_gvg_rspace:                             1.0E-06
 QS|                         eps_ppl:                                    1.0E-02
 QS|                         eps_ppnl:                                   1.0E-08


 ATOMIC KIND INFORMATION

  1. Atomic kind: Ni                                    Number of atoms:      32

     Orbital Basis Set                                        DZVP-MOLOPT-SR-GTH

       Number of orbital shell sets:                                           1
       Number of orbital shells:                                               8
       Number of primitive Cartesian functions:                                6
       Number of Cartesian basis functions:                                   31
       Number of spherical basis functions:                                   26
       Norm type:                                                              2

       Normalised Cartesian orbitals:

                        Set   Shell   Orbital            Exponent    Coefficient

                          1       1    2s               10.077428      -0.684558
                                                         5.847736      -0.844524
                                                         2.494033       1.088856
                                                         0.988355       0.395503
                                                         0.344978       0.010224
                                                         0.099466      -0.003250

                          1       2    3s               10.077428       0.096747
                                                         5.847736       0.162504
                                                         2.494033      -0.297192
                                                         0.988355      -0.319752
                                                         0.344978       0.088318
                                                         0.099466       0.118587

                          1       3    4s               10.077428       0.036437
                                                         5.847736      -0.381480
                                                         2.494033       0.003759
                                                         0.988355      -1.048256
                                                         0.344978       0.855825
                                                         0.099466      -0.176350

                          1       4    3px              10.077428      -3.133913
                                                         5.847736       3.027656
                                                         2.494033       2.353227
                                                         0.988355       0.554184
                                                         0.344978       0.019462
                                                         0.099466      -0.000291
                          1       4    3py              10.077428      -3.133913
                                                         5.847736       3.027656
                                                         2.494033       2.353227
                                                         0.988355       0.554184
                                                         0.344978       0.019462
                                                         0.099466      -0.000291
                          1       4    3pz              10.077428      -3.133913
                                                         5.847736       3.027656
                                                         2.494033       2.353227
                                                         0.988355       0.554184
                                                         0.344978       0.019462
                                                         0.099466      -0.000291

                          1       5    4px              10.077428      -0.112729
                                                         5.847736      -0.114008
                                                         2.494033      -0.347303
                                                         0.988355      -0.110323
                                                         0.344978       0.154096
                                                         0.099466       0.058386
                          1       5    4py              10.077428      -0.112729
                                                         5.847736      -0.114008
                                                         2.494033      -0.347303
                                                         0.988355      -0.110323
                                                         0.344978       0.154096
                                                         0.099466       0.058386
                          1       5    4pz              10.077428      -0.112729
                                                         5.847736      -0.114008
                                                         2.494033      -0.347303
                                                         0.988355      -0.110323
                                                         0.344978       0.154096
                                                         0.099466       0.058386

                          1       6    4dx2             10.077428       8.232726
                                                         5.847736       9.105758
                                                         2.494033       2.849835
                                                         0.988355       0.554319
                                                         0.344978       0.067245
                                                         0.099466       0.001940
                          1       6    4dxy             10.077428      14.259500
                                                         5.847736      15.771636
                                                         2.494033       4.936060
                                                         0.988355       0.960109
                                                         0.344978       0.116472
                                                         0.099466       0.003360
                          1       6    4dxz             10.077428      14.259500
                                                         5.847736      15.771636
                                                         2.494033       4.936060
                                                         0.988355       0.960109
                                                         0.344978       0.116472
                                                         0.099466       0.003360
                          1       6    4dy2             10.077428       8.232726
                                                         5.847736       9.105758
                                                         2.494033       2.849835
                                                         0.988355       0.554319
                                                         0.344978       0.067245
                                                         0.099466       0.001940
                          1       6    4dyz             10.077428      14.259500
                                                         5.847736      15.771636
                                                         2.494033       4.936060
                                                         0.988355       0.960109
                                                         0.344978       0.116472
                                                         0.099466       0.003360
                          1       6    4dz2             10.077428       8.232726
                                                         5.847736       9.105758
                                                         2.494033       2.849835
                                                         0.988355       0.554319
                                                         0.344978       0.067245
                                                         0.099466       0.001940

                          1       7    5dx2             10.077428      -2.715373
                                                         5.847736      -4.020640
                                                         2.494033      -1.397569
                                                         0.988355      -0.076143
                                                         0.344978       0.033435
                                                         0.099466       0.026032
                          1       7    5dxy             10.077428      -4.703164
                                                         5.847736      -6.963952
                                                         2.494033      -2.420661
                                                         0.988355      -0.131883
                                                         0.344978       0.057911
                                                         0.099466       0.045088
                          1       7    5dxz             10.077428      -4.703164
                                                         5.847736      -6.963952
                                                         2.494033      -2.420661
                                                         0.988355      -0.131883
                                                         0.344978       0.057911
                                                         0.099466       0.045088
                          1       7    5dy2             10.077428      -2.715373
                                                         5.847736      -4.020640
                                                         2.494033      -1.397569
                                                         0.988355      -0.076143
                                                         0.344978       0.033435
                                                         0.099466       0.026032
                          1       7    5dyz             10.077428      -4.703164
                                                         5.847736      -6.963952
                                                         2.494033      -2.420661
                                                         0.988355      -0.131883
                                                         0.344978       0.057911
                                                         0.099466       0.045088
                          1       7    5dz2             10.077428      -2.715373
                                                         5.847736      -4.020640
                                                         2.494033      -1.397569
                                                         0.988355      -0.076143
                                                         0.344978       0.033435
                                                         0.099466       0.026032

                          1       8    5fx3             10.077428      -0.467694
                                                         5.847736       0.618100
                                                         2.494033       0.066069
                                                         0.988355       0.262898
                                                         0.344978       0.004720
                                                         0.099466       0.007748
                          1       8    5fx2y            10.077428      -1.045795
                                                         5.847736       1.382114
                                                         2.494033       0.147734
                                                         0.988355       0.587859
                                                         0.344978       0.010555
                                                         0.099466       0.017325
                          1       8    5fx2z            10.077428      -1.045795
                                                         5.847736       1.382114
                                                         2.494033       0.147734
                                                         0.988355       0.587859
                                                         0.344978       0.010555
                                                         0.099466       0.017325
                          1       8    5fxy2            10.077428      -1.045795
                                                         5.847736       1.382114
                                                         2.494033       0.147734
                                                         0.988355       0.587859
                                                         0.344978       0.010555
                                                         0.099466       0.017325
                          1       8    5fxyz            10.077428      -1.811371
                                                         5.847736       2.393892
                                                         2.494033       0.255883
                                                         0.988355       1.018201
                                                         0.344978       0.018282
                                                         0.099466       0.030008
                          1       8    5fxz2            10.077428      -1.045795
                                                         5.847736       1.382114
                                                         2.494033       0.147734
                                                         0.988355       0.587859
                                                         0.344978       0.010555
                                                         0.099466       0.017325
                          1       8    5fy3             10.077428      -0.467694
                                                         5.847736       0.618100
                                                         2.494033       0.066069
                                                         0.988355       0.262898
                                                         0.344978       0.004720
                                                         0.099466       0.007748
                          1       8    5fy2z            10.077428      -1.045795
                                                         5.847736       1.382114
                                                         2.494033       0.147734
                                                         0.988355       0.587859
                                                         0.344978       0.010555
                                                         0.099466       0.017325
                          1       8    5fyz2            10.077428      -1.045795
                                                         5.847736       1.382114
                                                         2.494033       0.147734
                                                         0.988355       0.587859
                                                         0.344978       0.010555
                                                         0.099466       0.017325
                          1       8    5fz3             10.077428      -0.467694
                                                         5.847736       0.618100
                                                         2.494033       0.066069
                                                         0.988355       0.262898
                                                         0.344978       0.004720
                                                         0.099466       0.007748

       Atomic covalent radius [Angstrom]:                                  1.150

       Atomic van der Waals radius [Angstrom]:                             1.630

     GTH Potential information for                                   GTH-PBE-q18

       Description:                       Goedecker-Teter-Hutter pseudopotential
                                           Goedecker et al., PRB 54, 1703 (1996)
                                          Hartwigsen et al., PRB 58, 3641 (1998)
                                                      Krack, TCA 114, 145 (2005)

       Gaussian exponent of the core charge distribution:               4.081633
       Electronic configuration (s p d ...):                           4   6   8

       Parameters of the local part of the GTH pseudopotential:

                          rloc        C1          C2          C3          C4
                        0.350000    2.102166    0.648484

       Parameters of the non-local part of the GTH pseudopotential:

                   l      r(l)      h(i,j,l)

                   0    0.261295    0.622658    9.970227
                                    9.970227  -12.871507
                   1    0.224253  -11.142708   12.429566
                                   12.429566  -14.706861
                   2    0.215348  -12.628146


 MOLECULE KIND INFORMATION


 All atoms are their own molecule, skipping detailed information


 TOTAL NUMBERS AND MAXIMUM NUMBERS

  Total number of            - Atomic kinds:                                   1
                             - Atoms:                                         32
                             - Shell sets:                                    32
                             - Shells:                                       256
                             - Primitive Cartesian functions:                192
                             - Cartesian basis functions:                    992
                             - Spherical basis functions:                    832

  Maximum angular momentum of- Orbital basis functions:                        3
                             - Local part of the GTH pseudopotential:          2
                             - Non-local part of the GTH pseudopotential:      3


 MODULE QUICKSTEP: ATOMIC COORDINATES IN ANGSTROM

   Atom Kind Element         X             Y             Z       Z(eff)     Mass
      1    1 Ni   28      0.000000      0.000000      0.000000  18.0000  58.6934
      2    1 Ni   28      0.000000      1.752900      1.752900  18.0000  58.6934
      3    1 Ni   28      1.752900      0.000000      1.752900  18.0000  58.6934
      4    1 Ni   28      1.752900      1.752900      0.000000  18.0000  58.6934
      5    1 Ni   28      3.505798      0.000000      0.000000  18.0000  58.6934
      6    1 Ni   28      3.505798      1.752900      1.752900  18.0000  58.6934
      7    1 Ni   28      5.258698      0.000000      1.752900  18.0000  58.6934
      8    1 Ni   28      5.258698      1.752900      0.000000  18.0000  58.6934
      9    1 Ni   28      0.000000      3.505798      0.000000  18.0000  58.6934
     10    1 Ni   28      0.000000      5.258698      1.752900  18.0000  58.6934
     11    1 Ni   28      1.752900      3.505798      1.752900  18.0000  58.6934
     12    1 Ni   28      1.752900      5.258698      0.000000  18.0000  58.6934
     13    1 Ni   28      3.505798      3.505798      0.000000  18.0000  58.6934
     14    1 Ni   28      3.505798      5.258698      1.752900  18.0000  58.6934
     15    1 Ni   28      5.258698      3.505798      1.752900  18.0000  58.6934
     16    1 Ni   28      5.258698      5.258698      0.000000  18.0000  58.6934
     17    1 Ni   28      0.000000      0.000000      3.505798  18.0000  58.6934
     18    1 Ni   28      0.000000      1.752900      5.258698  18.0000  58.6934
     19    1 Ni   28      1.752900      0.000000      5.258698  18.0000  58.6934
     20    1 Ni   28      1.752900      1.752900      3.505798  18.0000  58.6934
     21    1 Ni   28      3.505798      0.000000      3.505798  18.0000  58.6934
     22    1 Ni   28      3.505798      1.752900      5.258698  18.0000  58.6934
     23    1 Ni   28      5.258698      0.000000      5.258698  18.0000  58.6934
     24    1 Ni   28      5.258698      1.752900      3.505798  18.0000  58.6934
     25    1 Ni   28      0.000000      3.505798      3.505798  18.0000  58.6934
     26    1 Ni   28      0.000000      5.258698      5.258698  18.0000  58.6934
     27    1 Ni   28      1.752900      3.505798      5.258698  18.0000  58.6934
     28    1 Ni   28      1.752900      5.258698      3.505798  18.0000  58.6934
     29    1 Ni   28      3.505798      3.505798      3.505798  18.0000  58.6934
     30    1 Ni   28      3.505798      5.258698      5.258698  18.0000  58.6934
     31    1 Ni   28      5.258698      3.505798      5.258698  18.0000  58.6934
     32    1 Ni   28      5.258698      5.258698      3.505798  18.0000  58.6934



 SCF PARAMETERS         Density guess:                                    ATOMIC
                        --------------------------------------------------------
                        max_scf:                                             500
                        max_scf_history:                                       0
                        max_diis:                                              4
                        --------------------------------------------------------
                        eps_scf:                                        1.00E-08
                        eps_scf_history:                                0.00E+00
                        eps_diis:                                       1.00E-01
                        eps_eigval:                                     1.00E-05
                        --------------------------------------------------------
                        level_shift [a.u.]:                             0.000000
                        added MOs                                        30   30
                        --------------------------------------------------------
                        Mixing method:                            BROYDEN_MIXING
                                                charge density mixing in g-space
                        --------------------------------------------------------
                        Smear method:                                FERMI_DIRAC
                        Electronic temperature [K]:                        300.0
                        Electronic temperature [a.u.]:                  9.50E-04
                        Accuracy threshold:                             1.00E-10
                        --------------------------------------------------------
                        No outer SCF

 PW_GRID| Information for grid number                                          1
 PW_GRID| Grid distributed over                                   128 processors
 PW_GRID| Real space group dimensions                                     8   16
 PW_GRID| the grid is blocked:                                               YES
 PW_GRID| Cutoff [a.u.]                                                    300.0
 PW_GRID| spherical cutoff:                                                   NO
 PW_GRID|   Bounds   1            -54      53                Points:         108
 PW_GRID|   Bounds   2            -54      53                Points:         108
 PW_GRID|   Bounds   3            -54      53                Points:         108
 PW_GRID| Volume element (a.u.^3)  0.1847E-02     Volume (a.u.^3)      2326.2011
 PW_GRID| Grid span                                                    FULLSPACE
 PW_GRID|   Distribution                         Average         Max         Min
 PW_GRID|   G-Vectors                             9841.5       10584        8424
 PW_GRID|   G-Rays                                  91.1          98          78
 PW_GRID|   Real Space Points                     9841.5       10584        8424

 PW_GRID| Information for grid number                                          2
 PW_GRID| Number of the reference grid                                         1
 PW_GRID| Grid distributed over                                   128 processors
 PW_GRID| Real space group dimensions                                     8   16
 PW_GRID| the grid is blocked:                                                NO
 PW_GRID| Cutoff [a.u.]                                                    100.0
 PW_GRID| spherical cutoff:                                                   NO
 PW_GRID|   Bounds   1            -30      29                Points:          60
 PW_GRID|   Bounds   2            -30      29                Points:          60
 PW_GRID|   Bounds   3            -30      29                Points:          60
 PW_GRID| Volume element (a.u.^3)  0.1077E-01     Volume (a.u.^3)      2326.2011
 PW_GRID| Grid span                                                    FULLSPACE
 PW_GRID|   Distribution                         Average         Max         Min
 PW_GRID|   G-Vectors                             1687.5        5880           0
 PW_GRID|   G-Rays                                  28.1          98           0
 PW_GRID|   Real Space Points                     1687.5        1920        1260

 PW_GRID| Information for grid number                                          3
 PW_GRID| Number of the reference grid                                         1
 PW_GRID| Grid distributed over                                   128 processors
 PW_GRID| Real space group dimensions                                     8   16
 PW_GRID| the grid is blocked:                                                NO
 PW_GRID| Cutoff [a.u.]                                                     33.3
 PW_GRID| spherical cutoff:                                                   NO
 PW_GRID|   Bounds   1            -18      17                Points:          36
 PW_GRID|   Bounds   2            -18      17                Points:          36
 PW_GRID|   Bounds   3            -18      17                Points:          36
 PW_GRID| Volume element (a.u.^3)  0.4986E-01     Volume (a.u.^3)      2326.2011
 PW_GRID| Grid span                                                    FULLSPACE
 PW_GRID|   Distribution                         Average         Max         Min
 PW_GRID|   G-Vectors                              364.5        3528           0
 PW_GRID|   G-Rays                                  10.1          98           0
 PW_GRID|   Real Space Points                      364.5         540         288

 PW_GRID| Information for grid number                                          4
 PW_GRID| Number of the reference grid                                         1
 PW_GRID| Grid distributed over                                   128 processors
 PW_GRID| Real space group dimensions                                     8   16
 PW_GRID| the grid is blocked:                                                NO
 PW_GRID| Cutoff [a.u.]                                                     11.1
 PW_GRID| spherical cutoff:                                                   NO
 PW_GRID|   Bounds   1            -10       9                Points:          20
 PW_GRID|   Bounds   2            -10       9                Points:          20
 PW_GRID|   Bounds   3            -10       9                Points:          20
 PW_GRID| Volume element (a.u.^3)  0.2908         Volume (a.u.^3)      2326.2011
 PW_GRID| Grid span                                                    FULLSPACE
 PW_GRID|   Distribution                         Average         Max         Min
 PW_GRID|   G-Vectors                               62.5        1400           0
 PW_GRID|   G-Rays                                   3.1          70           0
 PW_GRID|   Real Space Points                       62.5         120          40

 PW_GRID| Information for grid number                                          5
 PW_GRID| Number of the reference grid                                         1
 PW_GRID| Grid distributed over                                   128 processors
 PW_GRID| Real space group dimensions                                     8   16
 PW_GRID| the grid is blocked:                                                NO
 PW_GRID| Cutoff [a.u.]                                                      3.7
 PW_GRID| spherical cutoff:                                                   NO
 PW_GRID|   Bounds   1             -6       5                Points:          12
 PW_GRID|   Bounds   2             -6       5                Points:          12
 PW_GRID|   Bounds   3             -6       5                Points:          12
 PW_GRID| Volume element (a.u.^3)   1.346         Volume (a.u.^3)      2326.2011
 PW_GRID| Grid span                                                    FULLSPACE
 PW_GRID|   Distribution                         Average         Max         Min
 PW_GRID|   G-Vectors                               13.5         432           0
 PW_GRID|   G-Rays                                   1.1          36           0
 PW_GRID|   Real Space Points                       13.5          24           0

 POISSON| Solver                                                        PERIODIC
 POISSON| Periodicity                                                        XYZ

 RS_GRID| Information for grid number                                          1
 RS_GRID|   Bounds   1            -54      53                Points:         108
 RS_GRID|   Bounds   2            -54      53                Points:         108
 RS_GRID|   Bounds   3            -54      53                Points:         108
 RS_GRID| Real space distribution over                                  8 groups
 RS_GRID| Real space distribution along direction                              2
 RS_GRID| Border size                                                         28
 RS_GRID| Real space distribution over                                 16 groups
 RS_GRID| Real space distribution along direction                              3
 RS_GRID| Border size                                                         28
 RS_GRID|   Distribution                         Average         Max         Min
 RS_GRID|   Planes                                  69.5          70          69
 RS_GRID|   Distribution                         Average         Max         Min
 RS_GRID|   Planes                                  62.8          63          62

 RS_GRID| Information for grid number                                          2
 RS_GRID|   Bounds   1            -30      29                Points:          60
 RS_GRID|   Bounds   2            -30      29                Points:          60
 RS_GRID|   Bounds   3            -30      29                Points:          60
 RS_GRID| Real space fully replicated
 RS_GRID| Group size                                                           1

 RS_GRID| Information for grid number                                          3
 RS_GRID|   Bounds   1            -18      17                Points:          36
 RS_GRID|   Bounds   2            -18      17                Points:          36
 RS_GRID|   Bounds   3            -18      17                Points:          36
 RS_GRID| Real space fully replicated
 RS_GRID| Group size                                                           1

 RS_GRID| Information for grid number                                          4
 RS_GRID|   Bounds   1            -10       9                Points:          20
 RS_GRID|   Bounds   2            -10       9                Points:          20
 RS_GRID|   Bounds   3            -10       9                Points:          20
 RS_GRID| Real space fully replicated
 RS_GRID| Group size                                                           1

 RS_GRID| Information for grid number                                          5
 RS_GRID|   Bounds   1             -6       5                Points:          12
 RS_GRID|   Bounds   2             -6       5                Points:          12
 RS_GRID|   Bounds   3             -6       5                Points:          12
 RS_GRID| Real space fully replicated
 RS_GRID| Group size                                                           1

 Spin 1

 Number of electrons:                                                        320
 Number of occupied orbitals:                                                320
 Number of molecular orbitals:                                               350

 Spin 2

 Number of electrons:                                                        256
 Number of occupied orbitals:                                                256
 Number of molecular orbitals:                                               286

 Number of orbital functions:                                                832
 Number of independent orbital functions:                                    832

 Extrapolation method: initial_guess

 Atomic guess: The first density matrix is obtained in terms of atomic orbitals
               and electronic configurations assigned to each atomic kind

 Guess for atomic kind: Ni

 Electronic structure
    Total number of core electrons                                         10.00
    Total number of valence electrons                                      18.00
    Total number of electrons                                              28.00
    Multiplicity                                                         triplet
    Alpha Electrons
    S   [  1.00  1.00] 1.00  1.00
    P   [  3.00] 3.00
    D      5.00
    Beta Electrons
    S   [  1.00  1.00] 1.00  1.00
    P   [  3.00] 3.00
    D      3.00


 *******************************************************************************
                  Iteration          Convergence                     Energy [au]
 *******************************************************************************
                          1         1.61955                    -167.102733612646
                          2         17.9576                    -156.964728082342
                          3         2.81889                    -168.347679739779
                          4        0.300879                    -168.639029543130
                          5        0.133614                    -168.643718125190
                          6        0.642384E-01                -168.645928334381
                          7        0.411618E-01                -168.646613747745
                          8        0.978516E-02                -168.646711132537
                          9        0.508781E-01                -168.646571314898
                         10        0.138948E-01                -168.646700563277
                         11        0.138660E-01                -168.646700237384
                         12        0.629414E-02                -168.646712261956
                         13        0.566241E-02                -168.646713151996
                         14        0.495313E-02                -168.646714117454
                         15        0.421991E-02                -168.646714987798
                         16        0.338228E-02                -168.646715812720
                         17        0.416465E-02                -168.646716816326
                         18        0.344616E-02                -168.646717043212
                         19        0.330991E-02                -168.646717101846
                         20        0.313342E-02                -168.646717172930
                         21        0.281829E-02                -168.646717286496
                         22        0.848656E-03                -168.646717732580
                         23        0.109512E-02                -168.646717723740
                         24        0.104995E-02                -168.646717732012
                         25        0.102855E-02                -168.646717736906
                         26        0.100245E-02                -168.646717743176
                         27        0.676032E-03                -168.646717806927
                         28        0.602106E-03                -168.646717861030
                         29        0.625282E-03                -168.646717860099
                         30        0.624945E-03                -168.646717860052
                         31        0.623853E-03                -168.646717860100
                         32        0.624150E-03                -168.646717860067
                         33        0.237289E-03                -168.646717879062
                         34        0.180801E-03                -168.646717882280
                         35        0.181452E-03                -168.646717882256
                         36        0.181661E-03                -168.646717882245
                         37        0.181696E-03                -168.646717882243
                         38        0.180660E-03                -168.646717882285
                         39        0.167278E-03                -168.646717884960
                         40        0.108251E-03                -168.646717886084
                         41        0.108355E-03                -168.646717886083
                         42        0.108427E-03                -168.646717886083
                         43        0.108486E-03                -168.646717886083
                         44        0.108485E-03                -168.646717886083
                         45        0.694677E-04                -168.646717886478
                         46        0.318666E-04                -168.646717886752
                         47        0.318508E-04                -168.646717886753
                         48        0.318379E-04                -168.646717886753
                         49        0.318252E-04                -168.646717886753
                         50        0.320703E-04                -168.646717886751
 No convergence within maximum number of iterations 

 Energy components [Hartree]           Total Energy ::         -168.646717886751
                                        Band Energy ::          -26.584923955507
                                     Kinetic Energy ::           97.352330251814
                                   Potential Energy ::         -265.999048138565
                                      Virial (-V/T) ::            2.732333652934
                                        Core Energy ::         -299.595021414610
                                          XC Energy ::          -16.265210292971
                                     Coulomb Energy ::          147.213513820830
                       Total Pseudopotential Energy ::         -397.033695283644
                       Local Pseudopotential Energy ::         -362.697061997994
                    Nonlocal Pseudopotential Energy ::          -34.336633285650
                                        Confinement ::            0.863436172188

 Orbital energies  State     Spin  L     Occupation   Energy[a.u.]    Energy[eV]

                       1    alpha  0          1.000      -4.198782   -114.254674
                       2    alpha  0          1.000      -0.185813     -5.056229
                       1     beta  0          1.000      -4.107299   -111.765292
                       2     beta  0          1.000      -0.171331     -4.662162

                       1    alpha  1          3.000      -2.604156    -70.862688
                       1     beta  1          3.000      -2.515143    -68.440529

                       1    alpha  2          5.000      -0.348813     -9.491687
                       1     beta  2          3.000      -0.273245     -7.435375


 Total Electron Density at R=0:                                         0.030313

 Spin 1
 Re-scaling the density matrix to get the right number of electrons for spin 1
                  # Electrons              Trace(P)               Scaling factor
                          320               320.032                        1.000

 Spin 2
 Re-scaling the density matrix to get the right number of electrons for spin 2
                  # Electrons              Trace(P)               Scaling factor
                          256               256.035                        1.000


 SCF WAVEFUNCTION OPTIMIZATION

  Step     Update method      Time    Convergence         Total energy    Change
  ------------------------------------------------------------------------------
     1 NoMix/Diag. 0.50E-01    1.8     0.80642385     -5430.5035547420 -5.43E+03
     2 Broy./Diag. 0.50E-01    0.5     0.02179158     -5363.0290532264  6.75E+01
     3 Broy./Diag. 0.50E-01    0.5     0.02177887     -5386.0170970631 -2.30E+01
     4 Broy./Diag. 0.50E-01    0.5     0.12012666     -5412.2171794721 -2.62E+01
     5 Broy./Diag. 0.50E-01    0.5     0.03435881     -5434.1659238444 -2.19E+01
     6 Broy./Diag. 0.50E-01    0.5     0.19014508     -5423.2698950438  1.09E+01
     7 Broy./Diag. 0.50E-01    0.5     0.01013483     -5396.5342481125  2.67E+01
     8 Broy./Diag. 0.50E-01    0.5     0.05105533     -5405.3010026805 -8.77E+00
     9 Broy./Diag. 0.50E-01    0.5     0.00308606     -5403.8130391327  1.49E+00
    10 Broy./Diag. 0.50E-01    0.5     0.00641555     -5404.3784001079 -5.65E-01
    11 Broy./Diag. 0.50E-01    0.5     0.03642020     -5408.4119417567 -4.03E+00
    12 Broy./Diag. 0.50E-01    0.5     0.00754442     -5416.6744252225 -8.26E+00
    13 Broy./Diag. 0.50E-01    0.5     0.00505971     -5415.8972283667  7.77E-01
    14 Broy./Diag. 0.50E-01    0.5     0.02971686     -5415.5643353214  3.33E-01
    15 Broy./Diag. 0.50E-01    0.5     0.00581274     -5418.6702915292 -3.11E+00
    16 Broy./Diag. 0.50E-01    0.5     0.00460353     -5418.5402917987  1.30E-01
    17 Broy./Diag. 0.50E-01    0.5     0.00389097     -5417.9242621289  6.16E-01
    18 Broy./Diag. 0.50E-01    0.5     0.00231106     -5419.5061325384 -1.58E+00
    19 Broy./Diag. 0.50E-01    0.5     0.00388171     -5417.8462066989  1.66E+00
    20 Broy./Diag. 0.50E-01    0.5     0.01237552     -5416.7544063689  1.09E+00
    21 Broy./Diag. 0.50E-01    0.5     0.00508804     -5410.3995076849  6.35E+00
    22 Broy./Diag. 0.50E-01    0.5     0.00510895     -5411.4920685140 -1.09E+00
    23 Broy./Diag. 0.50E-01    0.5     0.00443142     -5407.7550831955  3.74E+00
    24 Broy./Diag. 0.50E-01    0.5     0.00338904     -5405.1772814263  2.58E+00
    25 Broy./Diag. 0.50E-01    0.5     0.00343187     -5407.1384526104 -1.96E+00
    26 Broy./Diag. 0.50E-01    0.5     0.00356172     -5409.3130862078 -2.17E+00
    27 Broy./Diag. 0.50E-01    0.6     0.00436569     -5411.3981931824 -2.09E+00
    28 Broy./Diag. 0.50E-01    0.5     0.00154488     -5411.9008745055  1.13E+00
    29 Broy./Diag. 0.50E-01    0.5     0.00179240     -5416.9719183601 -2.31E+00
    30 Broy./Diag. 0.50E-01    0.5     0.00327275     -5412.7788648451 -5.07E-02
    31 Broy./Diag. 0.50E-01    0.5     0.00408596     -5417.7516504368 -8.55E-02
    32 Broy./Diag. 0.50E-01    0.5     0.00600594     -5418.4587590301 -4.51E+00
    33 Broy./Diag. 0.50E-01    0.5     0.00921568     -5415.4875475647  7.96E-01
    34 Broy./Diag. 0.50E-01    0.6     0.00221116     -5415.8413358848 -1.35E+00
    35 Broy./Diag. 0.50E-01    0.5     0.00814484     -5421.4623753215 -1.83E+00
    36 Broy./Diag. 0.50E-01    0.5     0.00218503     -5417.6971573193 -3.30E-01
    37 Broy./Diag. 0.50E-01    0.5     0.01060184     -5423.4330532429 -1.53E+00
    38 Broy./Diag. 0.50E-01    0.5     0.00439052     -5415.7584706713  1.34E+00
    39 Broy./Diag. 0.50E-01    0.5     0.00260854     -5416.1925383934 -4.34E-01
    40 Broy./Diag. 0.50E-01    0.5     0.00553607     -5417.2927276993 -1.10E+00
    41 Broy./Diag. 0.50E-01    0.5     0.00411154     -5420.2291744676 -1.53E+00
    42 Broy./Diag. 0.50E-01    0.5     0.00644689     -5418.0484350013  2.18E+00
    43 Broy./Diag. 0.50E-01    0.5     0.00928134     -5415.9971062431  1.29E-01
    44 Broy./Diag. 0.50E-01    0.5     0.01765331     -5416.2390924882  3.09E-02
    45 Broy./Diag. 0.50E-01    0.6     0.00186757     -5413.2880588671  2.95E+00
    46 Broy./Diag. 0.50E-01    0.5     0.01056078     -5413.8151736355 -5.27E-01
    47 Broy./Diag. 0.50E-01    0.5     0.00637974     -5412.8717560697  9.43E-01
    48 Broy./Diag. 0.50E-01    0.5     0.00217070     -5413.1247291484 -2.53E-01
    49 Broy./Diag. 0.50E-01    0.5     0.01197929     -5413.7627190231 -6.38E-01
    50 Broy./Diag. 0.50E-01    0.5     0.01972330     -5416.7097545256 -1.97E+00
    51 Broy./Diag. 0.50E-01    0.5     0.04494081     -5418.2331100922 -1.59E+00
    52 Broy./Diag. 0.50E-01    0.5     0.02079829     -5415.4258351968 -3.10E+00
    53 Broy./Diag. 0.50E-01    0.6     0.02737373     -5409.3776023640  6.05E+00
    54 Broy./Diag. 0.50E-01    0.5     0.02360282     -5415.1466594711 -5.77E+00
    55 Broy./Diag. 0.50E-01    0.5     0.00191039     -5411.1375649101  4.01E+00
    56 Broy./Diag. 0.50E-01    0.5     0.00378914     -5416.8699251702 -4.89E+00
    57 Broy./Diag. 0.50E-01    0.5     0.00605858     -5413.0052409998 -2.08E+00
    58 Broy./Diag. 0.50E-01    0.5     0.00809535     -5413.0476902890  3.31E+00
    59 Broy./Diag. 0.50E-01    0.5     0.01481677     -5416.2995364213 -3.25E+00
    60 Broy./Diag. 0.50E-01    0.5     0.01560582     -5412.7642490920  3.54E+00
    61 Broy./Diag. 0.50E-01    0.5     0.01200286     -5416.1567923353 -3.39E+00
    62 Broy./Diag. 0.50E-01    0.5     0.00298794     -5410.9738442573  5.18E+00
    63 Broy./Diag. 0.50E-01    0.6     0.00604675     -5411.9266680680 -9.53E-01
    64 Broy./Diag. 0.50E-01    0.5     0.00932709     -5409.7394657236  2.19E+00
    65 Broy./Diag. 0.50E-01    0.5     0.00734418     -5413.2477463934 -3.51E+00
    66 Broy./Diag. 0.50E-01    0.5     0.00405939     -5412.6358886767  6.12E-01
    67 Broy./Diag. 0.50E-01    0.5     0.00197629     -5414.2316093668 -1.60E+00
    68 Broy./Diag. 0.50E-01    0.5     0.01934987     -5415.3030396877 -1.07E+00
    69 Broy./Diag. 0.50E-01    0.5     0.01250478     -5412.5599224671  2.74E+00
    70 Broy./Diag. 0.50E-01    0.5     0.01200317     -5415.1656642734 -2.61E+00
    71 Broy./Diag. 0.50E-01    0.5     0.01387932     -5412.0109349379  3.15E+00
    72 Broy./Diag. 0.50E-01    0.5     0.01214887     -5414.5055384419 -2.49E+00
    73 Broy./Diag. 0.50E-01    0.5     0.01657408     -5411.5538265282  2.95E+00
    74 Broy./Diag. 0.50E-01    0.5     0.02307275     -5415.5468591871 -3.99E+00
    75 Broy./Diag. 0.50E-01    0.5     0.00798499     -5412.1694360551  3.38E+00
    76 Broy./Diag. 0.50E-01    0.5     0.01377966     -5413.1307940973 -9.61E-01
    77 Broy./Diag. 0.50E-01    0.5     0.00654881     -5412.5244579976  6.06E-01
    78 Broy./Diag. 0.50E-01    0.5     0.00783371     -5413.9165925275 -1.39E+00
    79 Broy./Diag. 0.50E-01    0.5     0.00909903     -5413.2415254300  6.75E-01
    80 Broy./Diag. 0.50E-01    0.5     0.00713304     -5415.9177544513 -2.68E+00
    81 Broy./Diag. 0.50E-01    0.6     0.00751785     -5416.0118488337 -9.41E-02
    82 Broy./Diag. 0.50E-01    0.5     0.00601786     -5416.2381328014 -2.26E-01
    83 Broy./Diag. 0.50E-01    0.5     0.01755711     -5417.5017460683 -1.26E+00
    84 Broy./Diag. 0.50E-01    0.5     0.00688737     -5415.4959903121  2.01E+00
    85 Broy./Diag. 0.50E-01    0.5     0.00933477     -5414.3486633544  1.15E+00
    86 Broy./Diag. 0.50E-01    0.5     0.02601015     -5417.1569735005 -2.81E+00
    87 Broy./Diag. 0.50E-01    0.5     0.02065551     -5411.4856379154  5.67E+00
    88 Broy./Diag. 0.50E-01    0.5     0.00322072     -5415.0154710422 -3.53E+00
    89 Broy./Diag. 0.50E-01    0.5     0.00708297     -5414.4600988959  5.55E-01
    90 Broy./Diag. 0.50E-01    0.5     0.00355808     -5414.2507492646  2.09E-01
    91 Broy./Diag. 0.50E-01    0.5     0.00977712     -5413.3968926825  8.54E-01
    92 Broy./Diag. 0.50E-01    0.5     0.00689981     -5416.7009294905 -3.30E+00
    93 Broy./Diag. 0.50E-01    0.5     0.00312613     -5417.7262823167 -1.03E+00
    94 Broy./Diag. 0.50E-01    0.5     0.00337861     -5417.3951729404  3.31E-01
    95 Broy./Diag. 0.50E-01    0.5     0.01284664     -5417.1278999113  2.67E-01
    96 Broy./Diag. 0.50E-01    0.5     0.04041954     -5418.8508941644 -1.72E+00
    97 Broy./Diag. 0.50E-01    0.5     0.00622705     -5411.1863522436  7.66E+00
    98 Broy./Diag. 0.50E-01    0.5     0.01160594     -5412.3824236491 -1.20E+00
    99 Broy./Diag. 0.50E-01    0.5     0.00817358     -5414.5571636107 -2.17E+00
   100 Broy./Diag. 0.50E-01    0.5     0.02802495     -5416.3457897845 -1.79E+00
   101 Broy./Diag. 0.50E-01    0.5     0.02126263     -5421.2488938033 -4.90E+00
   102 Broy./Diag. 0.50E-01    0.5     0.02501103     -5416.3182822156  4.93E+00
   103 Broy./Diag. 0.50E-01    0.5     0.02740200     -5420.2313870481 -3.91E+00
   104 Broy./Diag. 0.50E-01    0.5     0.01309834     -5413.6726715736  6.56E+00
   105 Broy./Diag. 0.50E-01    0.5     0.02250382     -5416.0120549418 -2.34E+00
   106 Broy./Diag. 0.50E-01    0.5     0.02732412     -5414.8720335309  1.14E+00
   107 Broy./Diag. 0.50E-01    0.5     0.01816758     -5415.9312426042 -1.06E+00
   108 Broy./Diag. 0.50E-01    0.5     0.03165913     -5419.8225119845 -3.89E+00
   109 Broy./Diag. 0.50E-01    0.5     0.03553671     -5414.4907175354  5.33E+00
   110 Broy./Diag. 0.50E-01    0.5     0.01060257     -5417.1209161347 -2.63E+00
   111 Broy./Diag. 0.50E-01    0.5     0.01834369     -5416.8664018255  2.55E-01
   112 Broy./Diag. 0.50E-01    0.5     0.02176357     -5415.9344612418  9.32E-01
   113 Broy./Diag. 0.50E-01    0.5     0.00773726     -5417.7453765045 -1.81E+00
   114 Broy./Diag. 0.50E-01    0.5     0.00995476     -5417.5190664801  2.26E-01
   115 Broy./Diag. 0.50E-01    0.5     0.01891487     -5417.7782957946 -2.59E-01
   116 Broy./Diag. 0.50E-01    0.5     0.01962402     -5420.6731750904 -2.89E+00
   117 Broy./Diag. 0.50E-01    0.5     0.02927100     -5418.0782537743  2.59E+00
   118 Broy./Diag. 0.50E-01    0.6     0.01855845     -5420.3501874240 -2.27E+00
   119 Broy./Diag. 0.50E-01    0.5     0.00591084     -5416.3380383986  4.01E+00
   120 Broy./Diag. 0.50E-01    0.5     0.01089623     -5415.5756949459  7.62E-01
   121 Broy./Diag. 0.50E-01    0.5     0.01648586     -5418.4126654910 -2.84E+00
   122 Broy./Diag. 0.50E-01    0.5     0.00167082     -5414.3487014581  4.06E+00
   123 Broy./Diag. 0.50E-01    0.5     0.00459200     -5413.6488865516  7.00E-01
   124 Broy./Diag. 0.50E-01    0.6     0.00225553     -5412.8065649735  8.42E-01
   125 Broy./Diag. 0.50E-01    0.5     0.00242941     -5413.3870640019 -5.80E-01
   126 Broy./Diag. 0.50E-01    0.5     0.01132368     -5413.4743221585 -8.73E-02
   127 Broy./Diag. 0.50E-01    0.5     0.02965459     -5416.4523084445 -2.98E+00
   128 Broy./Diag. 0.50E-01    0.5     0.02096171     -5420.5996806692 -4.15E+00
   129 Broy./Diag. 0.50E-01    0.5     0.01522994     -5416.2189262015  4.38E+00
   130 Broy./Diag. 0.50E-01    0.5     0.01736047     -5418.3365651455 -2.12E+00
   131 Broy./Diag. 0.50E-01    0.5     0.01340218     -5413.3409647206  5.00E+00
   132 Broy./Diag. 0.50E-01    0.5     0.01251550     -5415.1729399846 -1.83E+00
   133 Broy./Diag. 0.50E-01    0.5     0.01279781     -5413.1450221261  2.03E+00
   134 Broy./Diag. 0.50E-01    0.5     0.01251615     -5415.8396683544 -2.69E+00
   135 Broy./Diag. 0.50E-01    0.5     0.01579960     -5414.4041379287  1.44E+00
   136 Broy./Diag. 0.50E-01    0.5     0.01350498     -5418.6584210295 -4.25E+00
   137 Broy./Diag. 0.50E-01    0.5     0.00713200     -5415.9823655730  2.68E+00
   138 Broy./Diag. 0.50E-01    0.5     0.00692412     -5414.2648347308  1.72E+00
   139 Broy./Diag. 0.50E-01    0.5     0.02201389     -5412.8384613971  1.43E+00
   140 Broy./Diag. 0.50E-01    0.5     0.00461625     -5418.4494088637 -5.61E+00
   141 Broy./Diag. 0.50E-01    0.5     0.00524548     -5417.4182796548  1.03E+00
   142 Broy./Diag. 0.50E-01    0.5     0.00513430     -5417.6758269223 -2.58E-01
   143 Broy./Diag. 0.50E-01    0.5     0.01090715     -5417.3240501830  3.52E-01
   144 Broy./Diag. 0.50E-01    0.6     0.00400848     -5417.8365874657  4.57E-03
   145 Broy./Diag. 0.50E-01    0.5     0.00235186     -5417.7484450578  8.81E-02
   146 Broy./Diag. 0.50E-01    0.5     0.00802832     -5417.7284254493  2.00E-02
   147 Broy./Diag. 0.50E-01    0.5     0.00044410     -5417.5957709489  1.33E-01
   148 Broy./Diag. 0.50E-01    0.5     0.00181990     -5417.6295410374 -3.38E-02
   149 Broy./Diag. 0.50E-01    0.5     0.00359583     -5417.6648614841 -3.53E-02
   150 Broy./Diag. 0.50E-01    0.5     0.00176775     -5417.6669494689 -2.09E-03
   151 Broy./Diag. 0.50E-01    0.5     0.00515658     -5417.7135431906 -4.66E-02
   152 Broy./Diag. 0.50E-01    0.5     0.00655056     -5417.7204880041 -6.94E-03
   153 Broy./Diag. 0.50E-01    0.5     0.00297015     -5417.7370671998 -1.66E-02
   154 Broy./Diag. 0.50E-01    0.6     0.00759123     -5417.6915727112  4.55E-02
   155 Broy./Diag. 0.50E-01    0.5     0.00138187     -5417.6911366252  4.36E-04
   156 Broy./Diag. 0.50E-01    0.5     0.00519700     -5417.6583294817  3.28E-02
   157 Broy./Diag. 0.50E-01    0.5     0.01783022     -5417.6797212723 -2.14E-02
   158 Broy./Diag. 0.50E-01    0.5     0.00270865     -5417.6948230771 -1.51E-02
   159 Broy./Diag. 0.50E-01    0.5     0.01151948     -5417.7073514650 -1.25E-02
   160 Broy./Diag. 0.50E-01    0.5     0.00453211     -5417.6888742559  1.85E-02
   161 Broy./Diag. 0.50E-01    0.5     0.00351821     -5417.6835864360  5.29E-03
   162 Broy./Diag. 0.50E-01    0.5     0.00461814     -5417.6906396939 -7.05E-03
   163 Broy./Diag. 0.50E-01    0.5     0.00568979     -5417.6723709675  1.83E-02
   164 Broy./Diag. 0.50E-01    0.5     0.00119952     -5417.6464858359  2.59E-02
   165 Broy./Diag. 0.50E-01    0.5     0.00155313     -5417.6209553994  2.55E-02
   166 Broy./Diag. 0.50E-01    0.5     0.00513988     -5417.4712643171  1.50E-01
   167 Broy./Diag. 0.50E-01    0.5     0.00166763     -5417.4943080935 -2.30E-02
   168 Broy./Diag. 0.50E-01    0.5     0.00159944     -5417.4917687943  2.54E-03
   169 Broy./Diag. 0.50E-01    0.5     0.00497167     -5417.4695382540  2.22E-02
   170 Broy./Diag. 0.50E-01    0.5     0.00282548     -5417.3790577681  9.05E-02
   171 Broy./Diag. 0.50E-01    0.5     0.00398944     -5417.5047786234 -1.26E-01
   172 Broy./Diag. 0.50E-01    0.6     0.00168054     -5417.6449938274 -1.40E-01
   173 Broy./Diag. 0.50E-01    0.5     0.00650835     -5417.5495730150  9.54E-02
   174 Broy./Diag. 0.50E-01    0.5     0.00389860     -5417.5265852840  2.30E-02
   175 Broy./Diag. 0.50E-01    0.5     0.00462581     -5417.5452988873 -1.87E-02
   176 Broy./Diag. 0.50E-01    0.5     0.00544521     -5417.5045506966  4.07E-02
   177 Broy./Diag. 0.50E-01    0.5     0.00541449     -5417.4873020961  1.72E-02
   178 Broy./Diag. 0.50E-01    0.5     0.00239799     -5417.5595235792 -7.22E-02
   179 Broy./Diag. 0.50E-01    0.5     0.00122898     -5417.6566541574 -9.71E-02
   180 Broy./Diag. 0.50E-01    0.5     0.00562005     -5417.7453188042 -8.87E-02
   181 Broy./Diag. 0.50E-01    0.5     0.00214542     -5417.7948975805 -4.96E-02
   182 Broy./Diag. 0.50E-01    0.5     0.00072246     -5417.7893702115  5.53E-03
   183 Broy./Diag. 0.50E-01    0.5     0.00078745     -5417.8002802049 -1.09E-02
   184 Broy./Diag. 0.50E-01    0.5     0.00116316     -5417.8074074572 -7.13E-03
   185 Broy./Diag. 0.50E-01    0.5     0.00150113     -5417.8183907615 -1.10E-02
   186 Broy./Diag. 0.50E-01    0.5     0.00060114     -5417.8179806330  4.10E-04
   187 Broy./Diag. 0.50E-01    0.5     0.00109421     -5417.8075641932  1.04E-02
   188 Broy./Diag. 0.50E-01    0.5     0.00356171     -5417.8052192694  2.34E-03
   189 Broy./Diag. 0.50E-01    0.5     0.00139564     -5417.8026851033  2.53E-03
   190 Broy./Diag. 0.50E-01    0.6     0.00249479     -5417.1859869183  1.62E-01
   191 Broy./Diag. 0.50E-01    0.6     0.00534404     -5417.5704556636 -3.84E-01
   192 Broy./Diag. 0.50E-01    0.5     0.00472383     -5417.6356564859 -6.52E-02
   193 Broy./Diag. 0.50E-01    0.5     0.00235801     -5417.5876177501  4.80E-02
   194 Broy./Diag. 0.50E-01    0.5     0.00075302     -5417.6700166326 -8.24E-02
   195 Broy./Diag. 0.50E-01    0.5     0.00429165     -5417.7621211488 -9.21E-02
   196 Broy./Diag. 0.50E-01    0.5     0.00486192     -5417.8026800223 -4.06E-02
   197 Broy./Diag. 0.50E-01    0.5     0.00215207     -5417.8160265721 -1.33E-02
   198 Broy./Diag. 0.50E-01    0.5     0.00480227     -5417.8200538161 -4.03E-03
   199 Broy./Diag. 0.50E-01    0.5     0.00119084     -5417.8096482841  1.04E-02
   200 Broy./Diag. 0.50E-01    0.5     0.00138433     -5417.8206445885 -1.10E-02
   201 Broy./Diag. 0.50E-01    0.5     0.00211301     -5417.8455093295 -2.49E-02
   202 Broy./Diag. 0.50E-01    0.5     0.00245857     -5417.8518301495 -6.32E-03
   203 Broy./Diag. 0.50E-01    0.5     0.00212418     -5417.8591557051 -7.33E-03
   204 Broy./Diag. 0.50E-01    0.5     0.00522835     -5417.8637250585 -4.57E-03
   205 Broy./Diag. 0.50E-01    0.5     0.00071533     -5417.8518510136  1.19E-02
   206 Broy./Diag. 0.50E-01    0.5     0.00320011     -5417.8507452283  1.11E-03
   207 Broy./Diag. 0.50E-01    0.5     0.00652116     -5417.8494758188  1.27E-03
   208 Broy./Diag. 0.50E-01    0.5     0.00678859     -5417.8478896671  1.59E-03
   209 Broy./Diag. 0.50E-01    0.6     0.01542123     -5417.8523286907 -4.44E-03
   210 Broy./Diag. 0.50E-01    0.5     0.00130958     -5417.8612190353 -8.89E-03
   211 Broy./Diag. 0.50E-01    0.5     0.01616285     -5417.8575190897  3.70E-03
   212 Broy./Diag. 0.50E-01    0.5     0.00552547     -5417.8448799339  1.26E-02
   213 Broy./Diag. 0.50E-01    0.5     0.01123826     -5417.8288378792  1.60E-02
   214 Broy./Diag. 0.50E-01    0.5     0.01433890     -5417.8515869643 -2.27E-02
   215 Broy./Diag. 0.50E-01    0.6     0.01155394     -5417.8402398364  1.13E-02
   216 Broy./Diag. 0.50E-01    0.6     0.00516530     -5417.8336769491  6.56E-03
   217 Broy./Diag. 0.50E-01    0.5     0.00838506     -5417.8512355878 -1.76E-02
   218 Broy./Diag. 0.50E-01    0.5     0.00672140     -5417.8765212593 -2.53E-02
   219 Broy./Diag. 0.50E-01    0.5     0.01124021     -5417.8695888936  6.93E-03
   220 Broy./Diag. 0.50E-01    0.5     0.01196867     -5417.8712093759 -1.62E-03
   221 Broy./Diag. 0.50E-01    0.5     0.01201724     -5417.8437528879  2.75E-02
   222 Broy./Diag. 0.50E-01    0.5     0.00192853     -5417.8360982977  7.65E-03
   223 Broy./Diag. 0.50E-01    0.5     0.00774293     -5417.8337244437  2.37E-03
   224 Broy./Diag. 0.50E-01    0.5     0.01434609     -5417.8215074893  1.22E-02
   225 Broy./Diag. 0.50E-01    0.5     0.02329015     -5417.8113406468  1.02E-02
   226 Broy./Diag. 0.50E-01    0.5     0.04223447     -5417.8411191260 -2.98E-02
   227 Broy./Diag. 0.50E-01    0.6     0.04107213     -5417.8281450784  1.30E-02
   228 Broy./Diag. 0.50E-01    0.5     0.00187781     -5417.8661374292 -3.80E-02
   229 Broy./Diag. 0.50E-01    0.5     0.00648103     -5417.8703843358 -4.25E-03
   230 Broy./Diag. 0.50E-01    0.5     0.01985709     -5417.8418306522  2.86E-02
   231 Broy./Diag. 0.50E-01    0.5     0.01903012     -5417.7899279537  5.19E-02
   232 Broy./Diag. 0.50E-01    0.5     0.01075122     -5417.8094130543 -1.95E-02
   233 Broy./Diag. 0.50E-01    0.5     0.01114435     -5417.8140619449 -4.65E-03
   234 Broy./Diag. 0.50E-01    0.5     0.00840671     -5417.8169472261 -2.89E-03
   235 Broy./Diag. 0.50E-01    0.5     0.01005724     -5417.8316412528 -1.47E-02
   236 Broy./Diag. 0.50E-01    0.5     0.00694910     -5417.8147613531  1.69E-02
   237 Broy./Diag. 0.50E-01    0.5     0.01557386     -5417.7803778076  3.44E-02
   238 Broy./Diag. 0.50E-01    0.5     0.01389863     -5417.7952186530 -1.48E-02
   239 Broy./Diag. 0.50E-01    0.5     0.00457348     -5417.8215871708 -2.64E-02
   240 Broy./Diag. 0.50E-01    0.5     0.00577738     -5417.8259217232 -4.33E-03
   241 Broy./Diag. 0.50E-01    0.5     0.00194436     -5417.7949890261  3.09E-02
   242 Broy./Diag. 0.50E-01    0.5     0.00496731     -5417.8130594674 -1.81E-02
   243 Broy./Diag. 0.50E-01    0.5     0.00582006     -5417.8326199133 -1.96E-02
   244 Broy./Diag. 0.50E-01    0.5     0.00253032     -5417.8342494609 -1.63E-03
   245 Broy./Diag. 0.50E-01    0.6     0.00571733     -5417.8320824972  2.17E-03
   246 Broy./Diag. 0.50E-01    0.5     0.00588210     -5417.8310545455  1.03E-03
   247 Broy./Diag. 0.50E-01    0.5     0.03269072     -5417.8274465876  3.61E-03
   248 Broy./Diag. 0.50E-01    0.5     0.03337950     -5417.8215758343  5.87E-03
   249 Broy./Diag. 0.50E-01    0.5     0.00149675     -5417.8350559270 -1.35E-02
   250 Broy./Diag. 0.50E-01    0.5     0.01182936     -5417.8374990712 -2.44E-03
   251 Broy./Diag. 0.50E-01    0.5     0.00451587     -5417.8140204971  2.35E-02
   252 Broy./Diag. 0.50E-01    0.5     0.02414252     -5417.8240616255 -1.00E-02
   253 Broy./Diag. 0.50E-01    0.5     0.01019500     -5417.8423024236 -1.82E-02
   254 Broy./Diag. 0.50E-01    0.5     0.00625737     -5417.8561942230 -1.39E-02
   255 Broy./Diag. 0.50E-01    0.5     0.01654307     -5417.8364027511  1.98E-02
   256 Broy./Diag. 0.50E-01    0.5     0.01130921     -5417.8442969247 -7.89E-03
   257 Broy./Diag. 0.50E-01    0.5     0.01115483     -5417.8370479941  7.25E-03
   258 Broy./Diag. 0.50E-01    0.5     0.01099976     -5417.8425508604 -5.50E-03
   259 Broy./Diag. 0.50E-01    0.5     0.01671908     -5417.8421193193  4.32E-04
   260 Broy./Diag. 0.50E-01    0.5     0.01373757     -5417.8293306283  1.28E-02
   261 Broy./Diag. 0.50E-01    0.5     0.00948312     -5417.8166671850  1.27E-02
   262 Broy./Diag. 0.50E-01    0.5     0.00477668     -5417.8232009879 -6.53E-03
   263 Broy./Diag. 0.50E-01    0.5     0.03433326     -5417.8295963791 -6.40E-03
   264 Broy./Diag. 0.50E-01    0.7     0.00693051     -5417.8367544163 -2.05E-03
   265 Broy./Diag. 0.50E-01    0.5     0.00185387     -5417.8342151655  2.54E-03
   266 Broy./Diag. 0.50E-01    0.5     0.00420941     -5417.8337712030  4.44E-04
   267 Broy./Diag. 0.50E-01    0.5     0.00706947     -5417.8347021385 -9.31E-04
   268 Broy./Diag. 0.50E-01    0.5     0.00235026     -5417.8367090856 -2.01E-03
   269 Broy./Diag. 0.50E-01    0.5     0.00232371     -5417.8335375440  3.17E-03
   270 Broy./Diag. 0.50E-01    0.5     0.00721474     -5417.8356114679 -2.07E-03
   271 Broy./Diag. 0.50E-01    0.5     0.00384388     -5417.8372109329 -1.60E-03
   272 Broy./Diag. 0.50E-01    0.5     0.00558629     -5417.8370508341  1.60E-04
   273 Broy./Diag. 0.50E-01    0.5     0.00807841     -5417.8322604354  4.79E-03
   274 Broy./Diag. 0.50E-01    0.5     0.00392012     -5417.8333196346 -1.06E-03
   275 Broy./Diag. 0.50E-01    0.5     0.00541370     -5417.8369969915 -3.68E-03
   276 Broy./Diag. 0.50E-01    0.5     0.00560549     -5417.8356487182  1.35E-03
   277 Broy./Diag. 0.50E-01    0.5     0.00044637     -5417.8392957868 -3.65E-03
   278 Broy./Diag. 0.50E-01    0.5     0.00288558     -5417.8412449172 -1.95E-03
   279 Broy./Diag. 0.50E-01    0.5     0.01187088     -5417.8382489705  3.00E-03
   280 Broy./Diag. 0.50E-01    0.5     0.00695060     -5417.8413592297 -3.11E-03
   281 Broy./Diag. 0.50E-01    0.5     0.00307316     -5417.8420450492 -6.86E-04
   282 Broy./Diag. 0.50E-01    0.6     0.00068885     -5417.8425557851 -5.11E-04
   283 Broy./Diag. 0.50E-01    0.5     0.00082078     -5417.8414998524  1.06E-03
   284 Broy./Diag. 0.50E-01    0.5     0.00248277     -5417.8408823030  6.18E-04
   285 Broy./Diag. 0.50E-01    0.5     0.00072908     -5417.8396786949  1.20E-03
   286 Broy./Diag. 0.50E-01    0.5     0.00318152     -5417.8384547080  1.22E-03
   287 Broy./Diag. 0.50E-01    0.5     0.00212992     -5417.8372595134  1.20E-03
   288 Broy./Diag. 0.50E-01    0.5     0.00525181     -5417.8379992787 -7.40E-04
   289 Broy./Diag. 0.50E-01    0.5     0.00425691     -5417.8388734676 -8.74E-04
   290 Broy./Diag. 0.50E-01    0.5     0.00517861     -5417.8398725841 -9.99E-04
   291 Broy./Diag. 0.50E-01    0.5     0.00476290     -5417.8399070144 -3.44E-05
   292 Broy./Diag. 0.50E-01    0.5     0.00147168     -5417.8382941919  1.61E-03
   293 Broy./Diag. 0.50E-01    0.5     0.00308200     -5417.8398505003 -1.56E-03
   294 Broy./Diag. 0.50E-01    0.5     0.01111998     -5417.8388102524  1.04E-03
[...]
      18     Ni       1         9.403096     8.531142     0.065762     0.871954
      19     Ni       1         9.407397     8.599052    -0.006448     0.808345
      20     Ni       1         9.061284     9.153241    -0.214525    -0.091957
      21     Ni       1         9.233224     8.998547    -0.231771     0.234677
      22     Ni       1         9.304929     8.859785    -0.164714     0.445144
      23     Ni       1         9.454241     8.335287     0.210472     1.118954
      24     Ni       1         9.286672     8.846105    -0.132777     0.440567
      25     Ni       1         9.271934     8.834915    -0.106849     0.437019
      26     Ni       1         9.453267     8.322428     0.224305     1.130840
      27     Ni       1         9.304788     8.814214    -0.119002     0.490575
      28     Ni       1         9.220809     8.966609    -0.187418     0.254200
      29     Ni       1         9.086202     9.124589    -0.210791    -0.038388
      30     Ni       1         9.373644     8.638472    -0.012116     0.735171
      31     Ni       1         9.391614     8.464656     0.143730     0.926958
      32     Ni       1         9.358497     8.629074     0.012429     0.729423
 # Total charge and spin      298.999891   277.000109    -0.000000    21.999783

 !-----------------------------------------------------------------------------!

 !-----------------------------------------------------------------------------!
                           Hirshfeld Charges

  #Atom  Element  Kind  Ref Charge     Population       Spin moment  Net charge
      1       Ni     1      18.000    9.510   8.224            1.286      0.266
      2       Ni     1      18.000    9.337   8.716            0.621     -0.053
      3       Ni     1      18.000    9.324   8.833            0.491     -0.157
      4       Ni     1      18.000    9.417   8.564            0.853      0.019
      5       Ni     1      18.000    9.456   8.504            0.951      0.040
      6       Ni     1      18.000    9.161   9.076            0.085     -0.236
      7       Ni     1      18.000    9.409   8.529            0.880      0.062
      8       Ni     1      18.000    9.471   8.196            1.275      0.333
      9       Ni     1      18.000    9.465   8.338            1.128      0.197
     10       Ni     1      18.000    9.405   8.496            0.909      0.099
     11       Ni     1      18.000    9.202   8.943            0.258     -0.145
     12       Ni     1      18.000    9.227   8.743            0.484      0.030
     13       Ni     1      18.000    9.401   8.809            0.592     -0.209
     14       Ni     1      18.000    9.254   8.877            0.377     -0.131
     15       Ni     1      18.000    9.537   8.694            0.844     -0.231
     16       Ni     1      18.000    9.530   8.173            1.357      0.297
     17       Ni     1      18.000    9.196   8.800            0.397      0.004
     18       Ni     1      18.000    9.395   8.460            0.934      0.145
     19       Ni     1      18.000    9.229   8.552            0.677      0.218
     20       Ni     1      18.000    9.225   8.784            0.442     -0.009
     21       Ni     1      18.000    9.251   8.584            0.667      0.164
     22       Ni     1      18.000    9.369   8.449            0.920      0.183
     23       Ni     1      18.000    9.481   8.408            1.073      0.111
     24       Ni     1      18.000    9.507   8.729            0.778     -0.236
     25       Ni     1      18.000    9.370   8.795            0.574     -0.165
     26       Ni     1      18.000    9.417   8.410            1.007      0.173
     27       Ni     1      18.000    9.331   8.584            0.748      0.085
     28       Ni     1      18.000    9.164   8.854            0.311     -0.018
     29       Ni     1      18.000    9.362   8.831            0.531     -0.193
     30       Ni     1      18.000    9.383   8.514            0.869      0.103
     31       Ni     1      18.000    9.578   8.273            1.305      0.149
     32       Ni     1      18.000    9.516   8.306            1.210      0.178

  Total Charge                                                           -0.000
 !-----------------------------------------------------------------------------!

 ENERGY| Total FORCE_EVAL ( QS ) energy [a.u.]:            -5417.962658756481687

 -------------------------------------------------------------------------------
 -                                                                             -
 -                                DBCSR STATISTICS                             -
 -                                                                             -
 -------------------------------------------------------------------------------
 COUNTER                                    TOTAL       BLAS       SMM       ACC
 flops    26 x    26 x    30          21415680000       0.0%    100.0%      0.0%
 flops    26 x    26 x    32         205590528000       0.0%    100.0%      0.0%
 flops inhomo. stacks                           0       0.0%      0.0%      0.0%
 flops total                       227.006208E+09       0.0%    100.0%      0.0%
 flops max/rank                      3.009552E+09       0.0%    100.0%      0.0%
 matmuls inhomo. stacks                         0       0.0%      0.0%      0.0%
 matmuls total                            5280000       0.0%    100.0%      0.0%
 number of processed stacks               1280000       0.0%    100.0%      0.0%
 average stack size                                     0.0       4.1       0.0
 marketing flops                   405.017592E+09
 -------------------------------------------------------------------------------
 # multiplications                           1000
 max memory usage/rank             232.255488E+06
 # max total images/rank                        2
 # max 3D layers                                1
 # MPI messages exchanged                 3712000
 MPI messages size (bytes):
  total size                        46.565376E+09
  min size                           0.000000E+00
  max size                          26.624000E+03
  average size                      12.544552E+03
 MPI breakdown and total messages size (bytes):
             size <=      128             1392000                        0
       128 < size <=     8192                   0                        0
      8192 < size <=    32768             2320000              46565376000
     32768 < size <=   131072                   0                        0
    131072 < size <=  4194304                   0                        0
   4194304 < size <= 16777216                   0                        0
  16777216 < size                               0                        0
 -------------------------------------------------------------------------------

 *** WARNING in dbcsr_mm.F:290 :: Using a non-square number of MPI ranks ***
 *** might lead to poor performance. Used ranks: 128 Suggested: 121 256  ***

 -------------------------------------------------------------------------------
 -                                                                             -
 -                      DBCSR MESSAGE PASSING PERFORMANCE                      -
 -                                                                             -
 -------------------------------------------------------------------------------
 ROUTINE             CALLS      AVE VOLUME [Bytes]
 MP_Bcast                3                     12.
 MP_Allreduce         7025                      8.
 MP_Alltoall         28012                  50954.
 MP_ISend            64000                   6481.
 MP_IRecv            64000                   5647.
 -------------------------------------------------------------------------------

 -------------------------------------------------------------------------------
 -                                                                             -
 -                                DBM STATISTICS                               -
 -                                                                             -
 -------------------------------------------------------------------------------
    M  x    N  x    K                                          COUNT     PERCENT
 -------------------------------------------------------------------------------

 -------------------------------------------------------------------------------
 -                                                                             -
 -                                GRID STATISTICS                              -
 -                                                                             -
 -------------------------------------------------------------------------------
 LP    KERNEL             BACKEND                              COUNT     PERCENT
 6     collocate ortho    REF                               77210112      50.02%
 6     integrate ortho    REF                               77056000      49.92%
 0     integrate general  REF                                  65536       0.04%
 0     collocate general  REF                                  36864       0.02%
 -------------------------------------------------------------------------------

 MEMORY| Estimated peak process memory [MiB]                                 224

 -------------------------------------------------------------------------------
 ----                             MULTIGRID INFO                            ----
 -------------------------------------------------------------------------------
 count for grid        1:         969696          cutoff [a.u.]          300.00
 count for grid        2:         304320          cutoff [a.u.]          100.00
 count for grid        3:         238080          cutoff [a.u.]           33.33
 count for grid        4:          65120          cutoff [a.u.]           11.11
 count for grid        5:           5120          cutoff [a.u.]            3.70
 total gridlevel count  :        1582336

 -------------------------------------------------------------------------------
 -                                                                             -
 -                         MESSAGE PASSING PERFORMANCE                         -
 -                                                                             -
 -------------------------------------------------------------------------------

 ROUTINE             CALLS      AVE VOLUME [Bytes]
 MP_Group                5
 MP_Bcast             2531                  73596.
 MP_Allreduce        12903                     95.
 MP_Sync             18021
 MP_Alltoall         33034               27070080.
 MP_SendRecv        509016                   5208.
 MP_ISendRecv       508000                   5208.
 MP_Wait            606262
 MP_comm_split        1000
 MP_ISend           206212                  38670.
 MP_IRecv           206456                  38627.
 MP_Recv               750                 133120.
 MP_Write_All            2                  19908.
 -------------------------------------------------------------------------------


 -------------------------------------------------------------------------------
 -                                                                             -
 -                           R E F E R E N C E S                               -
 -                                                                             -
 -------------------------------------------------------------------------------
 
 CP2K version 2023.1, the CP2K developers group (2023).
 CP2K is freely available from https://www.cp2k.org/ .

 Kuehne,Thomas D.; Iannuzzi,Marcella; Del Ben,Mauro;
 Rybkin,Vladimir V.; Seewald,Patrick; Stein,Frederick; Laino,Teodoro;
 Khaliullin,Rustam Z.; Schuett,Ole; Schiffmann,Florian; Golze,Dorothea;
 Wilhelm,Jan; Chulkov,Sergey; Bani-Hashemian,Mohammad Hossein;
 Weber,Valery; Borstnik,Urban; Taillefumier,Mathieu;
 Jakobovits,Alice Shoshana; Lazzaro,Alfio; Pabst,Hans; Mueller,Tiziano;
 Schade,Robert; Guidon,Manuel; Andermatt,Samuel; Holmberg,Nico;
 Schenter,Gregory K.; Hehn,Anna; Bussy,Augustin; Belleflamme,Fabian;
 Tabacchi,Gloria; Gloess,Andreas; Lass,Michael; Bethune,Iain;
 Mundy,Christopher J.; Plessl,Christian; Watkins,Matt;
 VandeVondele,Joost; Krack,Matthias; Hutter,Juerg. 
 The Journal of Chemical Physics, 152 (19), (2020). 
 CP2K: An electronic structure and molecular dynamics software package -
 Quickstep: Efficient and accurate electronic structure calculations.
 https://doi.org/10.1063/5.0007045

 Schuett, Ole; Messmer, Peter; Hutter, Juerg; VandeVondele, Joost. 
 Electronic Structure Calculations on Graphics Processing Units, John
 Wiley & Sons, Ltd, 173-190 (2016). 
 GPU-Accelerated Sparse Matrix-Matrix Multiplication for
 Linear Scaling Density Functional Theory.
 https://doi.org/10.1002/9781118670712.ch8

 Heinecke, A; Henry, G; Hutchinson, M; Pabst, H. 
 Proceedings of Intl. Supercomputing Conference, 981-991 (2016). 
 LIBXSMM: Accelerating Small Matrix Multiplications
 by Runtime Code Generation.
 https://doi.org/10.1109/SC.2016.83

 Borstnik, U; VandeVondele, J; Weber, V; Hutter, J. 
 PARALLEL COMPUTING, 40 (5-6), 47-58 (2014). 
 Sparse matrix multiplication: The distributed block-compressed sparse
 row library.
 https://doi.org/10.1016/j.parco.2014.03.012

 Hutter, J; Iannuzzi, M; Schiffmann, F; VandeVondele, J. 
 WIREs Comput Mol Sci., 4 (1), 15-25 (2014). 
 CP2K: atomistic simulations of condensed matter systems.
 https://doi.org/10.1002/wcms.1159

 Marek, A; Blum, V; Johanni, R; Havu, V; Lang, B; Auckenthaler, T;
 Heinecke, A; Bungartz, H; Lederer, H. 
 Journal of Physics: Condensed Matter, 26 (21), (2014). 
 The ELPA library: scalable parallel eigenvalue solutions for
 electronic structure
 theory and computational science.
 https://doi.org/10.1088/0953-8984/26/21/213201

 VandeVondele, J; Hutter, J. 
 JOURNAL OF CHEMICAL PHYSICS, 127 (11), 114105 (2007). 
 Gaussian basis sets for accurate calculations on molecular systems in
 gas and condensed phases.
 https://doi.org/10.1063/1.2770708

 Krack, M. 
 THEORETICAL CHEMISTRY ACCOUNTS, 114 (1-3), 145-152 (2005). 
 Pseudopotentials for H to Kr optimized for gradient-corrected
 exchange-correlation functionals.
 https://doi.org/10.1007/s00214-005-0655-y

 VandeVondele, J; Krack, M; Mohamed, F; Parrinello, M; Chassaing, T;
 Hutter, J. COMPUTER PHYSICS COMMUNICATIONS, 167 (2), 103-128 (2005). 
 QUICKSTEP: Fast and accurate density functional calculations using a
 mixed Gaussian and plane waves approach.
 https://doi.org/10.1016/j.cpc.2004.12.014

 Frigo, M; Johnson, SG. 
 PROCEEDINGS OF THE IEEE, 93 (2), 216-231 (2005). 
 The design and implementation of FFTW3.
 https://doi.org/10.1109/JPROC.2004.840301

 Hartwigsen, C; Goedecker, S; Hutter, J. 
 PHYSICAL REVIEW B, 58 (7), 3641-3662 (1998). 
 Relativistic separable dual-space Gaussian pseudopotentials from H to Rn.
 https://doi.org/10.1103/PhysRevB.58.3641

 Lippert, G; Hutter, J; Parrinello, M. 
 MOLECULAR PHYSICS, 92 (3), 477-487 (1997). 
 A hybrid Gaussian and plane wave density functional scheme.
 https://doi.org/10.1080/002689797170220

 Perdew, JP; Burke, K; Ernzerhof, M. 
 PHYSICAL REVIEW LETTERS, 77 (18), 3865-3868 (1996). 
 Generalized gradient approximation made simple.
 https://doi.org/10.1103/PhysRevLett.77.3865

 Goedecker, S; Teter, M; Hutter, J. 
 PHYSICAL REVIEW B, 54 (3), 1703-1710 (1996). 
 Separable dual-space Gaussian pseudopotentials.
 https://doi.org/10.1103/PhysRevB.54.1703


 -------------------------------------------------------------------------------
 -                                                                             -
 -                                T I M I N G                                  -
 -                                                                             -
 -------------------------------------------------------------------------------
 SUBROUTINE                       CALLS  ASD         SELF TIME        TOTAL TIME
                                MAXIMUM       AVERAGE  MAXIMUM  AVERAGE  MAXIMUM
 CP2K                                 1  1.0    0.133    0.135  277.559  277.560
 qs_energies                          1  2.0    0.001    0.002  276.888  276.889
 scf_env_do_scf                       1  3.0    0.001    0.002  275.641  275.643
 scf_env_do_scf_inner_loop          500  4.0    0.021    0.043  275.639  275.641
 qs_ks_update_qs_env                500  5.0    0.007    0.008  102.573  102.633
 rebuild_ks_matrix                  500  6.0    0.003    0.004  102.517  102.577
 qs_ks_build_kohn_sham_matrix       500  7.0    0.072    0.103  102.514  102.575
 qs_rho_update_rho_low              501  5.0    0.005    0.006   89.673   89.683
 calculate_rho_elec                1002  6.0    0.078    0.086   89.668   89.679
 sum_up_and_integrate               500  8.0    0.069    0.130   86.304   86.370
 integrate_v_rspace                1000  9.0    0.027    0.040   86.231   86.309
 qs_scf_new_mos                     500  5.0    0.009    0.011   77.932   78.167
 eigensolver                       1000  6.0    0.096    0.136   73.262   73.286
 grid_collocate_task_list          1002  7.0   68.703   71.958   68.703   71.958
 cp_fm_diag_elpa                   1000  7.0    0.003    0.008   65.067   65.205
 grid_integrate_task_list          1000 10.0   61.567   64.499   61.567   64.499
 cp_fm_redistribute_end            1000  8.0   56.058   64.262   56.303   64.269
 cp_fm_diag_elpa_base              1000  8.0    7.752   62.156    7.895   63.189
 rs_pw_transfer                   10014  9.5    0.121    0.177   31.427   33.705
 density_rs2pw                     1002  7.0    0.039    0.048   20.016   22.249
 pw_transfer                      20511 10.0    2.668    2.866   21.080   21.902
 potential_pw2rs                   1000 10.0    0.038    0.046   20.872   21.099
 fft_wrap_pw1pw2                  19511 11.1    0.084    0.100   18.378   19.436
 fft_wrap_pw1pw2_300              11503 12.4    0.392    0.460   15.135   15.778
 qs_vxc_create                      500  8.0    0.008    0.009   14.860   14.907
 xc_vxc_pw_create                   500  9.0    0.133    0.148   14.853   14.900
 fft3d_pb                         11503 13.4    3.533    3.866   12.814   13.708
 mp_waitany                       64192 11.5   10.030   13.117   10.030   13.117
 rs_pw_transfer_PW2RS_300          1002 12.0    4.094    4.732   11.807   12.308
 rs_pw_transfer_RS2PW_300          1004  9.0    2.867    3.956    9.363   11.569
 mp_alltoall_z22v                 31014 15.2    8.000    9.561    8.000    9.561
 xc_rho_set_and_dset_create         500 10.0    0.145    0.166    9.028    9.518
 xc_pw_derive                      6000 11.0    0.016    0.020    8.206    8.912
 cp_fm_cholesky_restore            3000  7.0    7.848    8.063    7.848    8.063
 mp_alltoall_d11v                 14008  9.3    4.697    6.686    4.697    6.686
 xc_pw_divergence                  1000 10.0    0.008    0.010    5.550    6.349
 rs_gather_matrices                1000 10.0    0.055    0.097    3.765    5.794
 -------------------------------------------------------------------------------

 The number of warnings for this run is : 2
 
 -------------------------------------------------------------------------------
  **** **** ******  **  PROGRAM ENDED AT                 2023-02-06 17:21:00.409
 ***** ** ***  *** **   PROGRAM RAN ON                                 nid004704
 **    ****   ******    PROGRAM RAN BY                                    cahart
 ***** **    ** ** **   PROGRAM PROCESS ID                                 49173
  **** **  *******  **  PROGRAM STOPPED IN /mnt/lustre/a2fs-work2/work/e05/e05/c
                                           ahart/postdoc/masters/ni/archer2/bulk
                                           /optimise/multiplicity-65_mos-30_temp
                                           -300/search/5.0E-02_4.0E-02
