 DBCSR| CPU Multiplication driver                                           XSMM (U)
 DBCSR| Multrec recursion limit                                              512 (U)
 DBCSR| Multiplication stack size                                           1000 (D)
 DBCSR| Maximum elements for images                                    UNLIMITED (U)
 DBCSR| Multiplicative factor virtual images                                   1 (U)
 DBCSR| Use multiplication densification                                       T (D)
 DBCSR| Multiplication size stacks                                             3 (U)
 DBCSR| Use memory pool for CPU allocation                                     F (U)
 DBCSR| Number of 3D layers                                               SINGLE (U)
 DBCSR| Use MPI memory allocation                                              F (U)
 DBCSR| Use RMA algorithm                                                      F (U)
 DBCSR| Use Communication thread                                               T (U)
 DBCSR| Communication thread load                                             87 (D)
 DBCSR| MPI: My process id                                                     0
 DBCSR| MPI: Number of processes                                             128
 DBCSR| OMP: Current number of threads                                         1
 DBCSR| OMP: Max number of threads                                             1
 DBCSR| Split modifier for TAS multiplication algorithm                  1.0E+00 (U)


  **** **** ******  **  PROGRAM STARTED AT               2023-02-14 15:38:25.804
 ***** ** ***  *** **   PROGRAM STARTED ON                             nid001453
 **    ****   ******    PROGRAM STARTED BY                                cahart
 ***** **    ** ** **   PROGRAM PROCESS ID                                 79512
  **** **  *******  **  PROGRAM STARTED IN /mnt/lustre/a2fs-work2/work/e05/e05/c
                                           ahart/postdoc/masters/ni/archer2/slab
                                           /optimise/alpha-beta/scf_1e-4_mos-100
                                           0_temp-2000_spin-0.7-0.5_periodic-xyz
                                           /search/4.0E-02_1.0E-2

 CP2K| version string:                 CP2K version 2023.1 (Development Version)
 CP2K| source code revision number:                                  git:964cd58
 CP2K| cp2kflags: omp libint fftw3 libxc elpa parallel scalapack xsmm plumed2 mk
 CP2K|            l
 CP2K| is freely available from                            https://www.cp2k.org/
 CP2K| Program compiled at                          Mon 13 Feb 17:05:14 GMT 2023
 CP2K| Program compiled on                                                  ln01
 CP2K| Program compiled for                                              ARCHER2
 CP2K| Data directory path    /work/e05/e05/cahart/cp2k/cp2k-2023.1/cp2k-2023.1-
 CP2K| Input file name                                                  cp2k.inp

 GLOBAL| Force Environment number                                              1
 GLOBAL| Basis set file name                                        BASIS_MOLOPT
 GLOBAL| Potential file name                                      GTH_POTENTIALS
 GLOBAL| MM Potential file name                                     MM_POTENTIAL
 GLOBAL| Coordinate file name                                      __STD_INPUT__
 GLOBAL| Method name                                                        CP2K
 GLOBAL| Project name                                                    Ni_bulk
 GLOBAL| Run type                                                         ENERGY
 GLOBAL| FFT library                                                       FFTW3
 GLOBAL| Diagonalization library                                            ELPA
 GLOBAL| DGEMM library                                                      BLAS
 GLOBAL| Minimum number of eigenvectors for ELPA usage                        16
 GLOBAL| Orthonormality check for eigenvectors                          DISABLED
 GLOBAL| Matrix multiplication library                                 ScaLAPACK
 GLOBAL| All-to-all communication in single precision                          F
 GLOBAL| FFTs using library dependent lengths                                  F
 GLOBAL| Grid backend                                                       AUTO
 GLOBAL| Global print level                                               MEDIUM
 GLOBAL| MPI I/O enabled                                                       T
 GLOBAL| Total number of message passing processes                           128
 GLOBAL| Number of threads for this process                                    1
 GLOBAL| This output is from process                                           0
 GLOBAL| Stack size for threads created by OpenMP (OMP_STACKSIZE)        default
 GLOBAL| CPU model name                          AMD EPYC 7742 64-Core Processor
 GLOBAL| CPUID                                                              1002

 MEMORY| system memory details [Kb]
 MEMORY|                        rank 0           min           max       average
 MEMORY| MemTotal            263527824     263527824     263527824     263527824
 MEMORY| MemFree             238613640     238613640     238613640     238613640
 MEMORY| Buffers                 38236         38236         38236         38236
 MEMORY| Cached                 835264        835264        835264        835264
 MEMORY| Slab                  1624116       1624116       1624116       1624116
 MEMORY| SReclaimable           125072        125072        125072        125072
 MEMORY| MemLikelyFree       239612212     239612212     239612212     239612212


 *** Fundamental physical constants (SI units) ***

 *** Literature: B. J. Mohr and B. N. Taylor,
 ***             CODATA recommended values of the fundamental physical
 ***             constants: 2006, Web Version 5.1
 ***             http://physics.nist.gov/constants

 Speed of light in vacuum [m/s]                             2.99792458000000E+08
 Magnetic constant or permeability of vacuum [N/A**2]       1.25663706143592E-06
 Electric constant or permittivity of vacuum [F/m]          8.85418781762039E-12
 Planck constant (h) [J*s]                                  6.62606896000000E-34
 Planck constant (h-bar) [J*s]                              1.05457162825177E-34
 Elementary charge [C]                                      1.60217648700000E-19
 Electron mass [kg]                                         9.10938215000000E-31
 Electron g factor [ ]                                     -2.00231930436220E+00
 Proton mass [kg]                                           1.67262163700000E-27
 Fine-structure constant                                    7.29735253760000E-03
 Rydberg constant [1/m]                                     1.09737315685270E+07
 Avogadro constant [1/mol]                                  6.02214179000000E+23
 Boltzmann constant [J/K]                                   1.38065040000000E-23
 Atomic mass unit [kg]                                      1.66053878200000E-27
 Bohr radius [m]                                            5.29177208590000E-11

 *** Conversion factors ***

 [u] -> [a.u.]                                              1.82288848426455E+03
 [Angstrom] -> [Bohr] = [a.u.]                              1.88972613288564E+00
 [a.u.] = [Bohr] -> [Angstrom]                              5.29177208590000E-01
 [a.u.] -> [s]                                              2.41888432650478E-17
 [a.u.] -> [fs]                                             2.41888432650478E-02
 [a.u.] -> [J]                                              4.35974393937059E-18
 [a.u.] -> [N]                                              8.23872205491840E-08
 [a.u.] -> [K]                                              3.15774647902944E+05
 [a.u.] -> [kJ/mol]                                         2.62549961709828E+03
 [a.u.] -> [kcal/mol]                                       6.27509468713739E+02
 [a.u.] -> [Pa]                                             2.94210107994716E+13
 [a.u.] -> [bar]                                            2.94210107994716E+08
 [a.u.] -> [atm]                                            2.90362800883016E+08
 [a.u.] -> [eV]                                             2.72113838565563E+01
 [a.u.] -> [Hz]                                             6.57968392072181E+15
 [a.u.] -> [1/cm] (wave numbers)                            2.19474631370540E+05
 [a.u./Bohr**2] -> [1/cm]                                   5.14048714338585E+03
 

 CELL_TOP| Volume [angstrom^3]:                                       983.249569
 CELL_TOP| Vector a [angstrom     7.012     0.000     0.000   |a| =     7.011596
 CELL_TOP| Vector b [angstrom     0.000     7.012     0.000   |b| =     7.011596
 CELL_TOP| Vector c [angstrom     0.000     0.000    20.000   |c| =    20.000000
 CELL_TOP| Angle (b,c), alpha [degree]:                                90.000000
 CELL_TOP| Angle (a,c), beta  [degree]:                                90.000000
 CELL_TOP| Angle (a,b), gamma [degree]:                                90.000000
 CELL_TOP| Numerically orthorhombic:                                         YES
 CELL_TOP| Periodicity                                                       XYZ

 GENERATE|  Preliminary Number of Bonds generated:                             0
 GENERATE|  Achieved consistency in connectivity generation.

 CELL| Volume [angstrom^3]:                                           983.249569
 CELL| Vector a [angstrom]:       7.012     0.000     0.000   |a| =     7.011596
 CELL| Vector b [angstrom]:       0.000     7.012     0.000   |b| =     7.011596
 CELL| Vector c [angstrom]:       0.000     0.000    20.000   |c| =    20.000000
 CELL| Angle (b,c), alpha [degree]:                                    90.000000
 CELL| Angle (a,c), beta  [degree]:                                    90.000000
 CELL| Angle (a,b), gamma [degree]:                                    90.000000
 CELL| Numerically orthorhombic:                                             YES
 CELL| Periodicity                                                           XYZ

 CELL_REF| Volume [angstrom^3]:                                       983.249569
 CELL_REF| Vector a [angstrom     7.012     0.000     0.000   |a| =     7.011596
 CELL_REF| Vector b [angstrom     0.000     7.012     0.000   |b| =     7.011596
 CELL_REF| Vector c [angstrom     0.000     0.000    20.000   |c| =    20.000000
 CELL_REF| Angle (b,c), alpha [degree]:                                90.000000
 CELL_REF| Angle (a,c), beta  [degree]:                                90.000000
 CELL_REF| Angle (a,b), gamma [degree]:                                90.000000
 CELL_REF| Numerically orthorhombic:                                         YES
 CELL_REF| Periodicity                                                       XYZ

 *** WARNING in cryssym.F:165 :: Symmetry library SPGLIB not available ***


 *******************************************************************************
                                    Kpoints
 *******************************************************************************
 BRILLOUIN| K-point scheme                                        Monkhorst-Pack
 BRILLOUIN| K-Point grid                                             4    4    1
 BRILLOUIN| Accuracy in Symmetry determination                      0.100000E-05
 BRILLOUIN| K-Point point group symmetrization                               OFF
 BRILLOUIN| Wavefunction type                                            COMPLEX
 BRILLOUIN| List of Kpoints [2 Pi/Bohr]                                        8
 BRILLOUIN| Number           Weight            X              Y              Z
 BRILLOUIN|     1           0.12500       -0.37500       -0.37500        0.00000
 BRILLOUIN|     2           0.12500       -0.37500       -0.12500        0.00000
 BRILLOUIN|     3           0.12500       -0.37500        0.12500        0.00000
 BRILLOUIN|     4           0.12500       -0.37500        0.37500        0.00000
 BRILLOUIN|     5           0.12500       -0.12500       -0.37500        0.00000
 BRILLOUIN|     6           0.12500       -0.12500       -0.12500        0.00000
 BRILLOUIN|     7           0.12500       -0.12500        0.12500        0.00000
 BRILLOUIN|     8           0.12500       -0.12500        0.37500        0.00000
 *******************************************************************************

 *******************************************************************************
 *******************************************************************************
 **                                                                           **
 **     #####                         ##              ##                      **
 **    ##   ##            ##          ##              ##                      **
 **   ##     ##                       ##            ######                    **
 **   ##     ##  ##   ##  ##   #####  ##  ##   ####   ##    #####    #####    **
 **   ##     ##  ##   ##  ##  ##      ## ##   ##      ##   ##   ##  ##   ##   **
 **   ##  ## ##  ##   ##  ##  ##      ####     ###    ##   ######   ######    **
 **    ##  ###   ##   ##  ##  ##      ## ##      ##   ##   ##       ##        **
 **     #######   #####   ##   #####  ##  ##  ####    ##    #####   ##        **
 **           ##                                                    ##        **
 **                                                                           **
 **                                                ... make the atoms dance   **
 **                                                                           **
 **            Copyright (C) by CP2K developers group (2000-2023)             **
 **                      J. Chem. Phys. 152, 194103 (2020)                    **
 **                                                                           **
 *******************************************************************************

 *** WARNING in qs_environment.F:1456 :: Number of electrons will be ***
 *** overwritten by NELEC_ALPHA and NELEC_BETA, multiplicity will be ***
 *** ignored.                                                        ***

 Number of electrons should be                                               576
 Sum of NELEC_ALPHA and NELEC_BETA is                                    576.000

 *** WARNING in qs_environment.F:1488 :: NELEC_ALPHA is not an integer, ***
 *** many features will not be supported.                               ***


 *** WARNING in qs_environment.F:1500 :: NELEC_BETA is not an integer, ***
 *** many features will not be supported.                              ***


 *** WARNING in qs_environment.F:1532 :: More ADDED_MOs requested for beta ***
 *** spin than available.                                                  ***


 *** WARNING in qs_environment.F:1548 :: More added MOs requested than     ***
 *** available. The full set of unoccupied MOs will be used. Use           ***
 *** 'ADDED_MOS -1' to always use all available MOs and to get rid of this ***
 *** warning.                                                              ***


 DFT| Spin unrestricted (spin-polarized) Kohn-Sham calculation               UKS
 DFT| Multiplicity                                                             1
 DFT| Number of spin states                                                    2
 DFT| Charge                                                                   0
 DFT| Self-interaction correction (SIC)                                       NO
 DFT| Cutoffs: density                                              1.000000E-10
 DFT|          gradient                                             1.000000E-10
 DFT|          tau                                                  1.000000E-10
 DFT|          cutoff_smoothing_range                               0.000000E+00
 DFT| XC density smoothing                                                  NONE
 DFT| XC derivatives                                                          PW

 FUNCTIONAL| PBE:
 FUNCTIONAL| J.P.Perdew, K.Burke, M.Ernzerhof, Phys. Rev. Letter, vol. 77, n 18,
 FUNCTIONAL|  pp. 3865-3868, (1996){spin polarized}                             

 vdW POTENTIAL|                                                   Pair Potential
 vdW POTENTIAL|          DFT-D3 (Version 3.1)
 vdW POTENTIAL|          Potential Form: S. Grimme et al, JCP 132: 154104 (2010)
 vdW POTENTIAL|          Zero Damping
 vdW POTENTIAL|          Cutoff Radius [Bohr]:                             20.00
 vdW POTENTIAL|          s6 Scaling Factor:                               1.0000
 vdW POTENTIAL|          sr6 Scaling Factor:                              1.2170
 vdW POTENTIAL|          s8 Scaling Factor:                               0.7220
 vdW POTENTIAL|          Cutoff for CN calculation:                   0.1000E-05

 QS| Method:                                                                 GPW
 QS| Density plane wave grid type                        NON-SPHERICAL FULLSPACE
 QS| Number of grid levels:                                                    5
 QS| Density cutoff [a.u.]:                                                300.0
 QS| Multi grid cutoff [a.u.]: 1) grid level                               300.0
 QS|                           2) grid level                               100.0
 QS|                           3) grid level                                33.3
 QS|                           4) grid level                                11.1
 QS|                           5) grid level                                 3.7
 QS| Grid level progression factor:                                          3.0
 QS| Relative density cutoff [a.u.]:                                        30.0
 QS| Interaction thresholds: eps_pgf_orb:                                1.0E-06
 QS|                         eps_filter_matrix:                          0.0E+00
 QS|                         eps_core_charge:                            1.0E-14
 QS|                         eps_rho_gspace:                             1.0E-12
 QS|                         eps_rho_rspace:                             1.0E-12
 QS|                         eps_gvg_rspace:                             1.0E-06
 QS|                         eps_ppl:                                    1.0E-02
 QS|                         eps_ppnl:                                   1.0E-08


 ATOMIC KIND INFORMATION

  1. Atomic kind: Ni_i                                  Number of atoms:      16

     Orbital Basis Set                                        DZVP-MOLOPT-SR-GTH

       Number of orbital shell sets:                                           1
       Number of orbital shells:                                               8
       Number of primitive Cartesian functions:                                6
       Number of Cartesian basis functions:                                   31
       Number of spherical basis functions:                                   26
       Norm type:                                                              2

       Normalised Cartesian orbitals:

                        Set   Shell   Orbital            Exponent    Coefficient

                          1       1    2s               10.077428      -0.684558
                                                         5.847736      -0.844524
                                                         2.494033       1.088856
                                                         0.988355       0.395503
                                                         0.344978       0.010224
                                                         0.099466      -0.003250

                          1       2    3s               10.077428       0.096747
                                                         5.847736       0.162504
                                                         2.494033      -0.297192
                                                         0.988355      -0.319752
                                                         0.344978       0.088318
                                                         0.099466       0.118587

                          1       3    4s               10.077428       0.036437
                                                         5.847736      -0.381480
                                                         2.494033       0.003759
                                                         0.988355      -1.048256
                                                         0.344978       0.855825
                                                         0.099466      -0.176350

                          1       4    3px              10.077428      -3.133913
                                                         5.847736       3.027656
                                                         2.494033       2.353227
                                                         0.988355       0.554184
                                                         0.344978       0.019462
                                                         0.099466      -0.000291
                          1       4    3py              10.077428      -3.133913
                                                         5.847736       3.027656
                                                         2.494033       2.353227
                                                         0.988355       0.554184
                                                         0.344978       0.019462
                                                         0.099466      -0.000291
                          1       4    3pz              10.077428      -3.133913
                                                         5.847736       3.027656
                                                         2.494033       2.353227
                                                         0.988355       0.554184
                                                         0.344978       0.019462
                                                         0.099466      -0.000291

                          1       5    4px              10.077428      -0.112729
                                                         5.847736      -0.114008
                                                         2.494033      -0.347303
                                                         0.988355      -0.110323
                                                         0.344978       0.154096
                                                         0.099466       0.058386
                          1       5    4py              10.077428      -0.112729
                                                         5.847736      -0.114008
                                                         2.494033      -0.347303
                                                         0.988355      -0.110323
                                                         0.344978       0.154096
                                                         0.099466       0.058386
                          1       5    4pz              10.077428      -0.112729
                                                         5.847736      -0.114008
                                                         2.494033      -0.347303
                                                         0.988355      -0.110323
                                                         0.344978       0.154096
                                                         0.099466       0.058386

                          1       6    4dx2             10.077428       8.232726
                                                         5.847736       9.105758
                                                         2.494033       2.849835
                                                         0.988355       0.554319
                                                         0.344978       0.067245
                                                         0.099466       0.001940
                          1       6    4dxy             10.077428      14.259500
                                                         5.847736      15.771636
                                                         2.494033       4.936060
                                                         0.988355       0.960109
                                                         0.344978       0.116472
                                                         0.099466       0.003360
                          1       6    4dxz             10.077428      14.259500
                                                         5.847736      15.771636
                                                         2.494033       4.936060
                                                         0.988355       0.960109
                                                         0.344978       0.116472
                                                         0.099466       0.003360
                          1       6    4dy2             10.077428       8.232726
                                                         5.847736       9.105758
                                                         2.494033       2.849835
                                                         0.988355       0.554319
                                                         0.344978       0.067245
                                                         0.099466       0.001940
                          1       6    4dyz             10.077428      14.259500
                                                         5.847736      15.771636
                                                         2.494033       4.936060
                                                         0.988355       0.960109
                                                         0.344978       0.116472
                                                         0.099466       0.003360
                          1       6    4dz2             10.077428       8.232726
                                                         5.847736       9.105758
                                                         2.494033       2.849835
                                                         0.988355       0.554319
                                                         0.344978       0.067245
                                                         0.099466       0.001940

                          1       7    5dx2             10.077428      -2.715373
                                                         5.847736      -4.020640
                                                         2.494033      -1.397569
                                                         0.988355      -0.076143
                                                         0.344978       0.033435
                                                         0.099466       0.026032
                          1       7    5dxy             10.077428      -4.703164
                                                         5.847736      -6.963952
                                                         2.494033      -2.420661
                                                         0.988355      -0.131883
                                                         0.344978       0.057911
                                                         0.099466       0.045088
                          1       7    5dxz             10.077428      -4.703164
                                                         5.847736      -6.963952
                                                         2.494033      -2.420661
                                                         0.988355      -0.131883
                                                         0.344978       0.057911
                                                         0.099466       0.045088
                          1       7    5dy2             10.077428      -2.715373
                                                         5.847736      -4.020640
                                                         2.494033      -1.397569
                                                         0.988355      -0.076143
                                                         0.344978       0.033435
                                                         0.099466       0.026032
                          1       7    5dyz             10.077428      -4.703164
                                                         5.847736      -6.963952
                                                         2.494033      -2.420661
                                                         0.988355      -0.131883
                                                         0.344978       0.057911
                                                         0.099466       0.045088
                          1       7    5dz2             10.077428      -2.715373
                                                         5.847736      -4.020640
                                                         2.494033      -1.397569
                                                         0.988355      -0.076143
                                                         0.344978       0.033435
                                                         0.099466       0.026032

                          1       8    5fx3             10.077428      -0.467694
                                                         5.847736       0.618100
                                                         2.494033       0.066069
                                                         0.988355       0.262898
                                                         0.344978       0.004720
                                                         0.099466       0.007748
                          1       8    5fx2y            10.077428      -1.045795
                                                         5.847736       1.382114
                                                         2.494033       0.147734
                                                         0.988355       0.587859
                                                         0.344978       0.010555
                                                         0.099466       0.017325
                          1       8    5fx2z            10.077428      -1.045795
                                                         5.847736       1.382114
                                                         2.494033       0.147734
                                                         0.988355       0.587859
                                                         0.344978       0.010555
                                                         0.099466       0.017325
                          1       8    5fxy2            10.077428      -1.045795
                                                         5.847736       1.382114
                                                         2.494033       0.147734
                                                         0.988355       0.587859
                                                         0.344978       0.010555
                                                         0.099466       0.017325
                          1       8    5fxyz            10.077428      -1.811371
                                                         5.847736       2.393892
                                                         2.494033       0.255883
                                                         0.988355       1.018201
                                                         0.344978       0.018282
                                                         0.099466       0.030008
                          1       8    5fxz2            10.077428      -1.045795
                                                         5.847736       1.382114
                                                         2.494033       0.147734
                                                         0.988355       0.587859
                                                         0.344978       0.010555
                                                         0.099466       0.017325
                          1       8    5fy3             10.077428      -0.467694
                                                         5.847736       0.618100
                                                         2.494033       0.066069
                                                         0.988355       0.262898
                                                         0.344978       0.004720
                                                         0.099466       0.007748
                          1       8    5fy2z            10.077428      -1.045795
                                                         5.847736       1.382114
                                                         2.494033       0.147734
                                                         0.988355       0.587859
                                                         0.344978       0.010555
                                                         0.099466       0.017325
                          1       8    5fyz2            10.077428      -1.045795
                                                         5.847736       1.382114
                                                         2.494033       0.147734
                                                         0.988355       0.587859
                                                         0.344978       0.010555
                                                         0.099466       0.017325
                          1       8    5fz3             10.077428      -0.467694
                                                         5.847736       0.618100
                                                         2.494033       0.066069
                                                         0.988355       0.262898
                                                         0.344978       0.004720
                                                         0.099466       0.007748

       Atomic covalent radius [Angstrom]:                                  1.150

       Atomic van der Waals radius [Angstrom]:                             1.630

     GTH Potential information for                                   GTH-PBE-q18

       Description:                       Goedecker-Teter-Hutter pseudopotential
                                           Goedecker et al., PRB 54, 1703 (1996)
                                          Hartwigsen et al., PRB 58, 3641 (1998)
                                                      Krack, TCA 114, 145 (2005)

       Gaussian exponent of the core charge distribution:               4.081633
       Electronic configuration (s p d ...):                           4   6   8

       Parameters of the local part of the GTH pseudopotential:

                          rloc        C1          C2          C3          C4
                        0.350000    2.102166    0.648484

       Parameters of the non-local part of the GTH pseudopotential:

                   l      r(l)      h(i,j,l)

                   0    0.261295    0.622658    9.970227
                                    9.970227  -12.871507
                   1    0.224253  -11.142708   12.429566
                                   12.429566  -14.706861
                   2    0.215348  -12.628146

  2. Atomic kind: Ni_b                                  Number of atoms:      16

     Orbital Basis Set                                        DZVP-MOLOPT-SR-GTH

       Number of orbital shell sets:                                           1
       Number of orbital shells:                                               8
       Number of primitive Cartesian functions:                                6
       Number of Cartesian basis functions:                                   31
       Number of spherical basis functions:                                   26
       Norm type:                                                              2

       Normalised Cartesian orbitals:

                        Set   Shell   Orbital            Exponent    Coefficient

                          1       1    2s               10.077428      -0.684558
                                                         5.847736      -0.844524
                                                         2.494033       1.088856
                                                         0.988355       0.395503
                                                         0.344978       0.010224
                                                         0.099466      -0.003250

                          1       2    3s               10.077428       0.096747
                                                         5.847736       0.162504
                                                         2.494033      -0.297192
                                                         0.988355      -0.319752
                                                         0.344978       0.088318
                                                         0.099466       0.118587

                          1       3    4s               10.077428       0.036437
                                                         5.847736      -0.381480
                                                         2.494033       0.003759
                                                         0.988355      -1.048256
                                                         0.344978       0.855825
                                                         0.099466      -0.176350

                          1       4    3px              10.077428      -3.133913
                                                         5.847736       3.027656
                                                         2.494033       2.353227
                                                         0.988355       0.554184
                                                         0.344978       0.019462
                                                         0.099466      -0.000291
                          1       4    3py              10.077428      -3.133913
                                                         5.847736       3.027656
                                                         2.494033       2.353227
                                                         0.988355       0.554184
                                                         0.344978       0.019462
                                                         0.099466      -0.000291
                          1       4    3pz              10.077428      -3.133913
                                                         5.847736       3.027656
                                                         2.494033       2.353227
                                                         0.988355       0.554184
                                                         0.344978       0.019462
                                                         0.099466      -0.000291

                          1       5    4px              10.077428      -0.112729
                                                         5.847736      -0.114008
                                                         2.494033      -0.347303
                                                         0.988355      -0.110323
                                                         0.344978       0.154096
                                                         0.099466       0.058386
                          1       5    4py              10.077428      -0.112729
                                                         5.847736      -0.114008
                                                         2.494033      -0.347303
                                                         0.988355      -0.110323
                                                         0.344978       0.154096
                                                         0.099466       0.058386
                          1       5    4pz              10.077428      -0.112729
                                                         5.847736      -0.114008
                                                         2.494033      -0.347303
                                                         0.988355      -0.110323
                                                         0.344978       0.154096
                                                         0.099466       0.058386

                          1       6    4dx2             10.077428       8.232726
                                                         5.847736       9.105758
                                                         2.494033       2.849835
                                                         0.988355       0.554319
                                                         0.344978       0.067245
                                                         0.099466       0.001940
                          1       6    4dxy             10.077428      14.259500
                                                         5.847736      15.771636
                                                         2.494033       4.936060
                                                         0.988355       0.960109
                                                         0.344978       0.116472
                                                         0.099466       0.003360
                          1       6    4dxz             10.077428      14.259500
                                                         5.847736      15.771636
                                                         2.494033       4.936060
                                                         0.988355       0.960109
                                                         0.344978       0.116472
                                                         0.099466       0.003360
                          1       6    4dy2             10.077428       8.232726
                                                         5.847736       9.105758
                                                         2.494033       2.849835
                                                         0.988355       0.554319
                                                         0.344978       0.067245
                                                         0.099466       0.001940
                          1       6    4dyz             10.077428      14.259500
                                                         5.847736      15.771636
                                                         2.494033       4.936060
                                                         0.988355       0.960109
                                                         0.344978       0.116472
                                                         0.099466       0.003360
                          1       6    4dz2             10.077428       8.232726
                                                         5.847736       9.105758
                                                         2.494033       2.849835
                                                         0.988355       0.554319
                                                         0.344978       0.067245
                                                         0.099466       0.001940

                          1       7    5dx2             10.077428      -2.715373
                                                         5.847736      -4.020640
                                                         2.494033      -1.397569
                                                         0.988355      -0.076143
                                                         0.344978       0.033435
                                                         0.099466       0.026032
                          1       7    5dxy             10.077428      -4.703164
                                                         5.847736      -6.963952
                                                         2.494033      -2.420661
                                                         0.988355      -0.131883
                                                         0.344978       0.057911
                                                         0.099466       0.045088
                          1       7    5dxz             10.077428      -4.703164
                                                         5.847736      -6.963952
                                                         2.494033      -2.420661
                                                         0.988355      -0.131883
                                                         0.344978       0.057911
                                                         0.099466       0.045088
                          1       7    5dy2             10.077428      -2.715373
                                                         5.847736      -4.020640
                                                         2.494033      -1.397569
                                                         0.988355      -0.076143
                                                         0.344978       0.033435
                                                         0.099466       0.026032
                          1       7    5dyz             10.077428      -4.703164
                                                         5.847736      -6.963952
                                                         2.494033      -2.420661
                                                         0.988355      -0.131883
                                                         0.344978       0.057911
                                                         0.099466       0.045088
                          1       7    5dz2             10.077428      -2.715373
                                                         5.847736      -4.020640
                                                         2.494033      -1.397569
                                                         0.988355      -0.076143
                                                         0.344978       0.033435
                                                         0.099466       0.026032

                          1       8    5fx3             10.077428      -0.467694
                                                         5.847736       0.618100
                                                         2.494033       0.066069
                                                         0.988355       0.262898
                                                         0.344978       0.004720
                                                         0.099466       0.007748
                          1       8    5fx2y            10.077428      -1.045795
                                                         5.847736       1.382114
                                                         2.494033       0.147734
                                                         0.988355       0.587859
                                                         0.344978       0.010555
                                                         0.099466       0.017325
                          1       8    5fx2z            10.077428      -1.045795
                                                         5.847736       1.382114
                                                         2.494033       0.147734
                                                         0.988355       0.587859
                                                         0.344978       0.010555
                                                         0.099466       0.017325
                          1       8    5fxy2            10.077428      -1.045795
                                                         5.847736       1.382114
                                                         2.494033       0.147734
                                                         0.988355       0.587859
                                                         0.344978       0.010555
                                                         0.099466       0.017325
                          1       8    5fxyz            10.077428      -1.811371
                                                         5.847736       2.393892
                                                         2.494033       0.255883
                                                         0.988355       1.018201
                                                         0.344978       0.018282
                                                         0.099466       0.030008
                          1       8    5fxz2            10.077428      -1.045795
                                                         5.847736       1.382114
                                                         2.494033       0.147734
                                                         0.988355       0.587859
                                                         0.344978       0.010555
                                                         0.099466       0.017325
                          1       8    5fy3             10.077428      -0.467694
                                                         5.847736       0.618100
                                                         2.494033       0.066069
                                                         0.988355       0.262898
                                                         0.344978       0.004720
                                                         0.099466       0.007748
                          1       8    5fy2z            10.077428      -1.045795
                                                         5.847736       1.382114
                                                         2.494033       0.147734
                                                         0.988355       0.587859
                                                         0.344978       0.010555
                                                         0.099466       0.017325
                          1       8    5fyz2            10.077428      -1.045795
                                                         5.847736       1.382114
                                                         2.494033       0.147734
                                                         0.988355       0.587859
                                                         0.344978       0.010555
                                                         0.099466       0.017325
                          1       8    5fz3             10.077428      -0.467694
                                                         5.847736       0.618100
                                                         2.494033       0.066069
                                                         0.988355       0.262898
                                                         0.344978       0.004720
                                                         0.099466       0.007748

       Atomic covalent radius [Angstrom]:                                  1.150

       Atomic van der Waals radius [Angstrom]:                             1.630

     GTH Potential information for                                   GTH-PBE-q18

       Description:                       Goedecker-Teter-Hutter pseudopotential
                                           Goedecker et al., PRB 54, 1703 (1996)
                                          Hartwigsen et al., PRB 58, 3641 (1998)
                                                      Krack, TCA 114, 145 (2005)

       Gaussian exponent of the core charge distribution:               4.081633
       Electronic configuration (s p d ...):                           4   6   8

       Parameters of the local part of the GTH pseudopotential:

                          rloc        C1          C2          C3          C4
                        0.350000    2.102166    0.648484

       Parameters of the non-local part of the GTH pseudopotential:

                   l      r(l)      h(i,j,l)

                   0    0.261295    0.622658    9.970227
                                    9.970227  -12.871507
                   1    0.224253  -11.142708   12.429566
                                   12.429566  -14.706861
                   2    0.215348  -12.628146


 MOLECULE KIND INFORMATION


 All atoms are their own molecule, skipping detailed information


 TOTAL NUMBERS AND MAXIMUM NUMBERS

  Total number of            - Atomic kinds:                                   2
                             - Atoms:                                         32
                             - Shell sets:                                    32
                             - Shells:                                       256
                             - Primitive Cartesian functions:                192
                             - Cartesian basis functions:                    992
                             - Spherical basis functions:                    832

  Maximum angular momentum of- Orbital basis functions:                        3
                             - Local part of the GTH pseudopotential:          2
                             - Non-local part of the GTH pseudopotential:      3


 MODULE QUICKSTEP: ATOMIC COORDINATES IN ANGSTROM

   Atom Kind Element         X             Y             Z       Z(eff)     Mass
      1    1 Ni   28      0.876298      0.876298      7.370500  18.0000  58.6934
      2    1 Ni   28      0.876298      4.382298      7.370500  18.0000  58.6934
      3    1 Ni   28      2.629298      2.629298      7.370500  18.0000  58.6934
      4    1 Ni   28      2.629298      6.135298      7.370500  18.0000  58.6934
      5    1 Ni   28      4.382298      0.876298      7.370500  18.0000  58.6934
      6    1 Ni   28      4.382298      4.382298      7.370500  18.0000  58.6934
      7    1 Ni   28      6.135298      2.629298      7.370500  18.0000  58.6934
      8    1 Ni   28      6.135298      6.135298      7.370500  18.0000  58.6934
      9    2 Ni   28      0.876298      2.629298      9.123500  18.0000  58.6934
     10    2 Ni   28      0.876298      6.135298      9.123500  18.0000  58.6934
     11    2 Ni   28      2.629298      0.876298      9.123500  18.0000  58.6934
     12    2 Ni   28      2.629298      4.382298      9.123500  18.0000  58.6934
     13    2 Ni   28      4.382298      2.629298      9.123500  18.0000  58.6934
     14    2 Ni   28      4.382298      6.135298      9.123500  18.0000  58.6934
     15    2 Ni   28      6.135298      0.876298      9.123500  18.0000  58.6934
     16    2 Ni   28      6.135298      4.382298      9.123500  18.0000  58.6934
     17    2 Ni   28      0.876298      0.876298     10.876500  18.0000  58.6934
     18    2 Ni   28      0.876298      4.382298     10.876500  18.0000  58.6934
     19    2 Ni   28      2.629298      2.629298     10.876500  18.0000  58.6934
     20    2 Ni   28      2.629298      6.135298     10.876500  18.0000  58.6934
     21    2 Ni   28      4.382298      0.876298     10.876500  18.0000  58.6934
     22    2 Ni   28      4.382298      4.382298     10.876500  18.0000  58.6934
     23    2 Ni   28      6.135298      2.629298     10.876500  18.0000  58.6934
     24    2 Ni   28      6.135298      6.135298     10.876500  18.0000  58.6934
     25    1 Ni   28      0.876298      2.629298     12.629500  18.0000  58.6934
     26    1 Ni   28      0.876298      6.135298     12.629500  18.0000  58.6934
     27    1 Ni   28      2.629298      0.876298     12.629500  18.0000  58.6934
     28    1 Ni   28      2.629298      4.382298     12.629500  18.0000  58.6934
     29    1 Ni   28      4.382298      2.629298     12.629500  18.0000  58.6934
     30    1 Ni   28      4.382298      6.135298     12.629500  18.0000  58.6934
     31    1 Ni   28      6.135298      0.876298     12.629500  18.0000  58.6934
     32    1 Ni   28      6.135298      4.382298     12.629500  18.0000  58.6934



 SCF PARAMETERS         Density guess:                                    ATOMIC
                        --------------------------------------------------------
                        max_scf:                                             500
                        max_scf_history:                                       0
                        max_diis:                                              4
                        --------------------------------------------------------
                        eps_scf:                                        1.00E-04
                        eps_scf_history:                                0.00E+00
                        eps_diis:                                       1.00E-01
                        eps_eigval:                                     1.00E-05
                        --------------------------------------------------------
                        level_shift [a.u.]:                             0.000000
                        added MOs                                       534  553
                        --------------------------------------------------------
                        Mixing method:                            BROYDEN_MIXING
                                                charge density mixing in g-space
                        --------------------------------------------------------
                        Smear method:                                FERMI_DIRAC
                        Electronic temperature [K]:                       2000.0
                        Electronic temperature [a.u.]:                  6.33E-03
                        Accuracy threshold:                             1.00E-10
                        --------------------------------------------------------
                        No outer SCF

 PW_GRID| Information for grid number                                          1
 PW_GRID| Grid distributed over                                   128 processors
 PW_GRID| Real space group dimensions                                     8   16
 PW_GRID| the grid is blocked:                                               YES
 PW_GRID| Cutoff [a.u.]                                                    300.0
 PW_GRID| spherical cutoff:                                                   NO
 PW_GRID|   Bounds   1            -54      53                Points:         108
 PW_GRID|   Bounds   2            -54      53                Points:         108
 PW_GRID|   Bounds   3           -150     149                Points:         300
 PW_GRID| Volume element (a.u.^3)  0.1896E-02     Volume (a.u.^3)      6635.2971
 PW_GRID| Grid span                                                    FULLSPACE
 PW_GRID|   Distribution                         Average         Max         Min
 PW_GRID|   G-Vectors                            27337.5       28728       25272
 PW_GRID|   G-Rays                                 253.1         266         234
 PW_GRID|   Real Space Points                    27337.5       28728       25272

 PW_GRID| Information for grid number                                          2
 PW_GRID| Number of the reference grid                                         1
 PW_GRID| Grid distributed over                                   128 processors
 PW_GRID| Real space group dimensions                                     8   16
 PW_GRID| the grid is blocked:                                                NO
 PW_GRID| Cutoff [a.u.]                                                    100.0
 PW_GRID| spherical cutoff:                                                   NO
 PW_GRID|   Bounds   1            -30      29                Points:          60
 PW_GRID|   Bounds   2            -30      29                Points:          60
 PW_GRID|   Bounds   3            -90      89                Points:         180
 PW_GRID| Volume element (a.u.^3)  0.1024E-01     Volume (a.u.^3)      6635.2971
 PW_GRID| Grid span                                                    FULLSPACE
 PW_GRID|   Distribution                         Average         Max         Min
 PW_GRID|   G-Vectors                             5062.5       15960           0
 PW_GRID|   G-Rays                                  84.4         266           0
 PW_GRID|   Real Space Points                     5062.5        5760        3780

 PW_GRID| Information for grid number                                          3
 PW_GRID| Number of the reference grid                                         1
 PW_GRID| Grid distributed over                                   128 processors
 PW_GRID| Real space group dimensions                                     8   16
 PW_GRID| the grid is blocked:                                                NO
 PW_GRID| Cutoff [a.u.]                                                     33.3
 PW_GRID| spherical cutoff:                                                   NO
 PW_GRID|   Bounds   1            -18      17                Points:          36
 PW_GRID|   Bounds   2            -18      17                Points:          36
 PW_GRID|   Bounds   3            -50      49                Points:         100
 PW_GRID| Volume element (a.u.^3)  0.5120E-01     Volume (a.u.^3)      6635.2971
 PW_GRID| Grid span                                                    FULLSPACE
 PW_GRID|   Distribution                         Average         Max         Min
 PW_GRID|   G-Vectors                             1012.5        9576           0
 PW_GRID|   G-Rays                                  28.1         266           0
 PW_GRID|   Real Space Points                     1012.5        1500         800

 PW_GRID| Information for grid number                                          4
 PW_GRID| Number of the reference grid                                         1
 PW_GRID| Grid distributed over                                   128 processors
 PW_GRID| Real space group dimensions                                     8   16
 PW_GRID| the grid is blocked:                                                NO
 PW_GRID| Cutoff [a.u.]                                                     11.1
 PW_GRID| spherical cutoff:                                                   NO
 PW_GRID|   Bounds   1            -10       9                Points:          20
 PW_GRID|   Bounds   2            -10       9                Points:          20
 PW_GRID|   Bounds   3            -30      29                Points:          60
 PW_GRID| Volume element (a.u.^3)  0.2765         Volume (a.u.^3)      6635.2971
 PW_GRID| Grid span                                                    FULLSPACE
 PW_GRID|   Distribution                         Average         Max         Min
 PW_GRID|   G-Vectors                              187.5        3800           0
 PW_GRID|   G-Rays                                   9.4         190           0
 PW_GRID|   Real Space Points                      187.5         360         120

 PW_GRID| Information for grid number                                          5
 PW_GRID| Number of the reference grid                                         1
 PW_GRID| Grid distributed over                                   128 processors
 PW_GRID| Real space group dimensions                                     8   16
 PW_GRID| the grid is blocked:                                                NO
 PW_GRID| Cutoff [a.u.]                                                      3.7
 PW_GRID| spherical cutoff:                                                   NO
 PW_GRID|   Bounds   1             -6       5                Points:          12
 PW_GRID|   Bounds   2             -6       5                Points:          12
 PW_GRID|   Bounds   3            -18      17                Points:          36
 PW_GRID| Volume element (a.u.^3)   1.280         Volume (a.u.^3)      6635.2971
 PW_GRID| Grid span                                                    FULLSPACE
 PW_GRID|   Distribution                         Average         Max         Min
 PW_GRID|   G-Vectors                               40.5        1296           0
 PW_GRID|   G-Rays                                   3.4         108           0
 PW_GRID|   Real Space Points                       40.5          72           0

 POISSON| Solver                                                        PERIODIC
 POISSON| Periodicity                                                        XYZ

 RS_GRID| Information for grid number                                          1
 RS_GRID|   Bounds   1            -54      53                Points:         108
 RS_GRID|   Bounds   2            -54      53                Points:         108
 RS_GRID|   Bounds   3           -150     149                Points:         300
 RS_GRID| Real space distribution over                                  8 groups
 RS_GRID| Real space distribution along direction                              2
 RS_GRID| Border size                                                         28
 RS_GRID| Real space distribution over                                 16 groups
 RS_GRID| Real space distribution along direction                              3
 RS_GRID| Border size                                                         28
 RS_GRID|   Distribution                         Average         Max         Min
 RS_GRID|   Planes                                  69.5          70          69
 RS_GRID|   Distribution                         Average         Max         Min
 RS_GRID|   Planes                                  74.8          75          74

 RS_GRID| Information for grid number                                          2
 RS_GRID|   Bounds   1            -30      29                Points:          60
 RS_GRID|   Bounds   2            -30      29                Points:          60
 RS_GRID|   Bounds   3            -90      89                Points:         180
 RS_GRID| Real space fully replicated
 RS_GRID| Group size                                                           1

 RS_GRID| Information for grid number                                          3
 RS_GRID|   Bounds   1            -18      17                Points:          36
 RS_GRID|   Bounds   2            -18      17                Points:          36
 RS_GRID|   Bounds   3            -50      49                Points:         100
 RS_GRID| Real space fully replicated
 RS_GRID| Group size                                                           1

 RS_GRID| Information for grid number                                          4
 RS_GRID|   Bounds   1            -10       9                Points:          20
 RS_GRID|   Bounds   2            -10       9                Points:          20
 RS_GRID|   Bounds   3            -30      29                Points:          60
 RS_GRID| Real space fully replicated
 RS_GRID| Group size                                                           1

 RS_GRID| Information for grid number                                          5
 RS_GRID|   Bounds   1             -6       5                Points:          12
 RS_GRID|   Bounds   2             -6       5                Points:          12
 RS_GRID|   Bounds   3            -18      17                Points:          36
 RS_GRID| Real space fully replicated
 RS_GRID| Group size                                                           1

 Spin 1

 Number of electrons:                                                        297.600
 Number of occupied orbitals:                                                298
 Number of molecular orbitals:                                               832

 Spin 2

 Number of electrons:                                                        278.400
 Number of occupied orbitals:                                                279
 Number of molecular orbitals:                                               832

 Number of orbital functions:                                                832
 Number of independent orbital functions:                                    832

 Extrapolation method: initial_guess

 Atomic guess: The first density matrix is obtained in terms of atomic orbitals
               and electronic configurations assigned to each atomic kind

 Guess for atomic kind: Ni_i

 Electronic structure
    Total number of core electrons                                         10.00
    Total number of valence electrons                                      18.00
    Total number of electrons                                              28.00
    Multiplicity                                                         doublet
    Alpha Electrons
    S   [  1.00  1.00] 1.00  1.00
    P   [  3.00] 3.00
    D      4.35
    Beta Electrons
    S   [  1.00  1.00] 1.00  1.00
    P   [  3.00] 3.00
    D      3.65


 *******************************************************************************
                  Iteration          Convergence                     Energy [au]
 *******************************************************************************
                          1         1.51729                    -167.067424631347
                          2         15.3902                    -156.642654318634
                          3         2.33433                    -168.319355313541
                          4        0.206730                    -168.609905008081
                          5        0.814175E-01                -168.612873080494
                          6        0.173318E-01                -168.613470181066
                          7        0.290432E-02                -168.613543571401
                          8        0.311825E-02                -168.613543401474
                          9        0.179670E-03                -168.613544404477
                         10        0.169386E-02                -168.613544207811
                         11        0.473341E-03                -168.613544360253
                         12        0.165417E-03                -168.613544400419
                         13        0.162622E-03                -168.613544401489
                         14        0.158325E-03                -168.613544403900
                         15        0.177007E-03                -168.613544402509
                         16        0.138916E-03                -168.613544404900
                         17        0.934549E-04                -168.613544406149
                         18        0.119916E-03                -168.613544405789
                         19        0.131607E-03                -168.613544405591
                         20        0.169309E-03                -168.613544404773
                         21        0.551337E-04                -168.613544406656
                         22        0.382664E-04                -168.613544406759
                         23        0.378942E-04                -168.613544406765
                         24        0.381089E-04                -168.613544406765
                         25        0.390835E-04                -168.613544406759
                         26        0.308614E-04                -168.613544406841
                         27        0.205044E-04                -168.613544406892
                         28        0.200942E-04                -168.613544406893
                         29        0.199375E-04                -168.613544406893
                         30        0.200198E-04                -168.613544406894
                         31        0.161325E-04                -168.613544406903
                         32        0.330614E-05                -168.613544406925
                         33        0.238713E-05                -168.613544406926
                         34        0.265439E-05                -168.613544406926
                         35        0.277073E-05                -168.613544406926
                         36        0.335175E-05                -168.613544406926
                         37        0.148809E-05                -168.613544406927
                         38        0.133447E-05                -168.613544406927
                         39        0.918735E-06                -168.613544406927

 Energy components [Hartree]           Total Energy ::         -168.613544406927
                                        Band Energy ::          -26.569761966525
                                     Kinetic Energy ::           97.306723392622
                                   Potential Energy ::         -265.920267799548
                                      Virial (-V/T) ::            2.732804666812
                                        Core Energy ::         -299.567979157577
                                          XC Energy ::          -16.227189041387
                                     Coulomb Energy ::          147.181623792037
                       Total Pseudopotential Energy ::         -396.961043505191
                       Local Pseudopotential Energy ::         -362.648291121960
                    Nonlocal Pseudopotential Energy ::          -34.312752383230
                                        Confinement ::            0.863409549921

 Orbital energies  State     Spin  L     Occupation   Energy[a.u.]    Energy[eV]

                       1    alpha  0          1.000      -4.172666   -113.544030
                       2    alpha  0          1.000      -0.181431     -4.936983
                       1     beta  0          1.000      -4.140640   -112.672541
                       2     beta  0          1.000      -0.176372     -4.799339

                       1    alpha  1          3.000      -2.578739    -70.171064
                       1     beta  1          3.000      -2.547579    -69.323162

                       1    alpha  2          4.350      -0.327039     -8.899191
                       1     beta  2          3.650      -0.300569     -8.178887


 Total Electron Density at R=0:                                         0.030422

 Guess for atomic kind: Ni_b

 Electronic structure
    Total number of core electrons                                         10.00
    Total number of valence electrons                                      18.00
    Total number of electrons                                              28.00
    Multiplicity                                                         doublet
    Alpha Electrons
    S   [  1.00  1.00] 1.00  1.00
    P   [  3.00] 3.00
    D      4.25
    Beta Electrons
    S   [  1.00  1.00] 1.00  1.00
    P   [  3.00] 3.00
    D      3.75


 *******************************************************************************
                  Iteration          Convergence                     Energy [au]
 *******************************************************************************
                          1         1.51687                    -167.065012761055
                          2         14.9817                    -156.620431300845
                          3         2.25575                    -168.317311438693
                          4        0.189210                    -168.607926092750
                          5        0.708658E-01                -168.610773319290
                          6        0.122256E-01                -168.611238205502
                          7        0.598421E-02                -168.611272268995
                          8        0.528277E-02                -168.611272438110
                          9        0.104644E-02                -168.611275321653
                         10        0.260234E-02                -168.611274926630
                         11        0.975322E-03                -168.611275328217
                         12        0.161067E-03                -168.611275447773
                         13        0.147413E-03                -168.611275446839
                         14        0.115114E-03                -168.611275449434
                         15        0.167217E-03                -168.611275445436
                         16        0.255374E-04                -168.611275450531
                         17        0.418369E-04                -168.611275450414
                         18        0.393709E-04                -168.611275450477
                         19        0.239931E-04                -168.611275450542
                         20        0.173885E-04                -168.611275450557
                         21        0.851368E-05                -168.611275450578
                         22        0.849928E-05                -168.611275450580
                         23        0.544937E-05                -168.611275450584
                         24        0.540003E-05                -168.611275450586
                         25        0.613371E-05                -168.611275450584
                         26        0.311593E-06                -168.611275450588

 Energy components [Hartree]           Total Energy ::         -168.611275450588
                                        Band Energy ::          -26.568680144499
                                     Kinetic Energy ::           97.303659243130
                                   Potential Energy ::         -265.914934693718
                                      Virial (-V/T) ::            2.732835915546
                                        Core Energy ::         -299.566189183323
                                          XC Energy ::          -16.224592878785
                                     Coulomb Energy ::          147.179506611520
                       Total Pseudopotential Energy ::         -396.956189041778
                       Local Pseudopotential Energy ::         -362.645043136649
                    Nonlocal Pseudopotential Energy ::          -34.311145905129
                                        Confinement ::            0.863406153250

 Orbital energies  State     Spin  L     Occupation   Energy[a.u.]    Energy[eV]

                       1    alpha  0          1.000      -4.168335   -113.426177
                       2    alpha  0          1.000      -0.180730     -4.917906
                       1     beta  0          1.000      -4.145459   -112.803683
                       2     beta  0          1.000      -0.177117     -4.819606

                       1    alpha  1          3.000      -2.574525    -70.056390
                       1     beta  1          3.000      -2.552268    -69.450746

                       1    alpha  2          4.250      -0.323446     -8.801405
                       1     beta  2          3.750      -0.304537     -8.286881


 Total Electron Density at R=0:                                         0.030429

 Spin 1
 Re-scaling the density matrix to get the right number of electrons for spin 1
                  # Electrons              Trace(P)               Scaling factor
                        297.600             297.600                        1.000

 Spin 2
 Re-scaling the density matrix to get the right number of electrons for spin 2
                  # Electrons              Trace(P)               Scaling factor
                        278.400             278.400                        1.000


 SCF WAVEFUNCTION OPTIMIZATION

  Step     Update method      Time    Convergence         Total energy    Change
  ------------------------------------------------------------------------------
     1 NoMix/Diag. 0.40E-01    1.4     0.87318318     -5426.4441344177 -5.43E+03
     2 Broy./Diag. 0.40E-01    1.5     0.04804232     -5315.1539192925  1.11E+02
[...]
   125 Broy./Diag. 0.40E-01    1.5     0.00521913     -5417.7083146244  3.26E-02
   126 Broy./Diag. 0.40E-01    1.5     0.01433841     -5417.6982835557  1.00E-02
   127 Broy./Diag. 0.40E-01    1.5     0.01023648     -5417.7030191321 -4.74E-03
   128 Broy./Diag. 0.40E-01    1.5     0.00447860     -5417.6580952063  4.49E-02
   129 Broy./Diag. 0.40E-01    1.5     0.02006401     -5417.6451496176  1.29E-02
   130 Broy./Diag. 0.40E-01    1.5     0.01690221     -5417.7301642038 -8.50E-02
   131 Broy./Diag. 0.40E-01    1.5     0.01939816     -5417.7822175418 -5.21E-02
   132 Broy./Diag. 0.40E-01    1.5     0.01234836     -5417.7709052589  1.13E-02
   133 Broy./Diag. 0.40E-01    1.5     0.00710612     -5417.7611508890  9.75E-03
   134 Broy./Diag. 0.40E-01    1.5     0.00311374     -5417.7878564393 -2.67E-02
   135 Broy./Diag. 0.40E-01    1.5     0.01011460     -5417.7911270095 -3.27E-03
   136 Broy./Diag. 0.40E-01    1.5     0.00958841     -5417.8097927938 -1.87E-02
   137 Broy./Diag. 0.40E-01    1.5     0.00708223     -5417.8071304431  2.66E-03
   138 Broy./Diag. 0.40E-01    1.5     0.00680763     -5417.7919904963  1.51E-02
   139 Broy./Diag. 0.40E-01    1.5     0.02028964     -5417.7909062498  1.08E-03
   140 Broy./Diag. 0.40E-01    1.5     0.02694803     -5417.8302619171 -3.94E-02
   141 Broy./Diag. 0.40E-01    1.5     0.01336536     -5417.7919549417  3.83E-02
   142 Broy./Diag. 0.40E-01    1.5     0.00853659     -5417.7757139260  1.62E-02
   143 Broy./Diag. 0.40E-01    1.5     0.00872321     -5417.8295922536 -5.39E-02
   144 Broy./Diag. 0.40E-01    1.5     0.00898152     -5417.7554223237  7.42E-02
   145 Broy./Diag. 0.40E-01    1.5     0.00727588     -5417.8133624939 -5.79E-02
   146 Broy./Diag. 0.40E-01    1.5     0.02734915     -5417.8319816680 -1.86E-02
   147 Broy./Diag. 0.40E-01    1.5     0.01852528     -5417.8146686248  1.73E-02
   148 Broy./Diag. 0.40E-01    1.5     0.00671782     -5417.7889236712  2.57E-02
   149 Broy./Diag. 0.40E-01    1.5     0.00998724     -5417.7951234335 -6.20E-03
   150 Broy./Diag. 0.40E-01    1.5     0.01000969     -5417.8117890426 -1.67E-02
   151 Broy./Diag. 0.40E-01    1.5     0.00575269     -5417.8186101344 -6.82E-03
   152 Broy./Diag. 0.40E-01    1.5     0.02671525     -5417.8169579718  1.65E-03
   153 Broy./Diag. 0.40E-01    1.5     0.00586329     -5417.7486374487  6.83E-02
   154 Broy./Diag. 0.40E-01    1.5     0.00282180     -5417.7468146809  1.82E-03
   155 Broy./Diag. 0.40E-01    1.5     0.00524809     -5417.7537721659 -6.96E-03
   156 Broy./Diag. 0.40E-01    1.5     0.00798990     -5417.7669496314 -1.32E-02
   157 Broy./Diag. 0.40E-01    1.5     0.00740284     -5417.7184234417  4.85E-02
   158 Broy./Diag. 0.40E-01    1.5     0.01270221     -5417.7251869681 -6.76E-03
   159 Broy./Diag. 0.40E-01    1.5     0.02030515     -5417.7877039320 -6.25E-02
   160 Broy./Diag. 0.40E-01    1.5     0.00461337     -5417.7829985258  4.71E-03
   161 Broy./Diag. 0.40E-01    1.5     0.02549370     -5417.7520550753  3.09E-02
   162 Broy./Diag. 0.40E-01    1.5     0.03160309     -5417.7680581963 -1.60E-02
   163 Broy./Diag. 0.40E-01    1.5     0.00500241     -5417.7500781241  1.80E-02
   164 Broy./Diag. 0.40E-01    1.5     0.02372964     -5417.7612557483 -1.12E-02
   165 Broy./Diag. 0.40E-01    1.5     0.00922975     -5417.7271989095  3.41E-02
   166 Broy./Diag. 0.40E-01    1.5     0.03221977     -5417.7333573596 -6.16E-03
   167 Broy./Diag. 0.40E-01    1.5     0.01379574     -5417.7647076576 -3.14E-02
   168 Broy./Diag. 0.40E-01    1.5     0.00375035     -5417.7940123039 -2.93E-02
   169 Broy./Diag. 0.40E-01    1.5     0.00342981     -5417.8178370176 -2.38E-02
   170 Broy./Diag. 0.40E-01    1.5     0.01902440     -5417.8163484635  1.49E-03
   171 Broy./Diag. 0.40E-01    1.5     0.00128252     -5417.7963976966  2.00E-02
   172 Broy./Diag. 0.40E-01    1.5     0.02806637     -5417.8521379648 -5.57E-02
   173 Broy./Diag. 0.40E-01    1.5     0.02652818     -5417.6805570665  1.72E-01
   174 Broy./Diag. 0.40E-01    1.5     0.00815340     -5417.7359929943 -5.54E-02
   175 Broy./Diag. 0.40E-01    1.5     0.04085129     -5417.6912317925  4.48E-02
   176 Broy./Diag. 0.40E-01    1.5     0.01789916     -5417.7661233092 -7.49E-02
   177 Broy./Diag. 0.40E-01    1.5     0.00559764     -5417.7427892300  2.33E-02
   178 Broy./Diag. 0.40E-01    1.5     0.00947840     -5417.7586943138 -1.59E-02
   179 Broy./Diag. 0.40E-01    1.5     0.02025801     -5417.7239711979  3.47E-02
   180 Broy./Diag. 0.40E-01    1.5     0.00932965     -5417.6656355236  5.83E-02
   181 Broy./Diag. 0.40E-01    1.5     0.00884631     -5417.6426985440  2.29E-02
   182 Broy./Diag. 0.40E-01    1.5     0.01692055     -5417.6568038839 -1.41E-02
   183 Broy./Diag. 0.40E-01    1.5     0.04722424     -5417.6454312305  1.14E-02
   184 Broy./Diag. 0.40E-01    1.5     0.00189275     -5417.7095220103 -6.41E-02
   185 Broy./Diag. 0.40E-01    1.5     0.00647232     -5417.6707631995  3.88E-02
   186 Broy./Diag. 0.40E-01    1.5     0.00925806     -5417.6604914029  1.03E-02
   187 Broy./Diag. 0.40E-01    1.5     0.01204360     -5417.6747848633 -1.43E-02
   188 Broy./Diag. 0.40E-01    1.5     0.00466358     -5417.6319487476  4.28E-02
   189 Broy./Diag. 0.40E-01    1.5     0.00891366     -5417.6395103905 -7.56E-03
   190 Broy./Diag. 0.40E-01    1.5     0.02382590     -5417.6475881673 -8.08E-03
   191 Broy./Diag. 0.40E-01    1.5     0.01273328     -5417.6516931938 -4.11E-03
   192 Broy./Diag. 0.40E-01    1.5     0.00087107     -5417.6398909105  1.18E-02
   193 Broy./Diag. 0.40E-01    1.5     0.01196053     -5417.6617560291 -2.19E-02
   194 Broy./Diag. 0.40E-01    1.5     0.00297540     -5417.6943133583 -3.26E-02
   195 Broy./Diag. 0.40E-01    1.5     0.00350488     -5417.7042879180 -9.97E-03
   196 Broy./Diag. 0.40E-01    1.5     0.00533096     -5417.7114717676 -7.18E-03
   197 Broy./Diag. 0.40E-01    1.5     0.00721192     -5417.7103913068  1.08E-03
   198 Broy./Diag. 0.40E-01    1.5     0.00597276     -5417.7173094389 -6.92E-03
   199 Broy./Diag. 0.40E-01    1.5     0.01372387     -5417.7186818369 -1.37E-03
   200 Broy./Diag. 0.40E-01    1.5     0.00221118     -5417.7185374308  1.44E-04
   201 Broy./Diag. 0.40E-01    1.5     0.00873697     -5417.7152822767  3.26E-03
   202 Broy./Diag. 0.40E-01    1.5     0.00570539     -5417.7352296709 -1.99E-02
   203 Broy./Diag. 0.40E-01    1.5     0.00948202     -5417.7046732823  3.06E-02
   204 Broy./Diag. 0.40E-01    1.5     0.00596606     -5417.7124459031 -7.77E-03
   205 Broy./Diag. 0.40E-01    1.5     0.00373716     -5417.6877894658  2.47E-02
   206 Broy./Diag. 0.40E-01    1.5     0.02043742     -5417.6774425179  1.03E-02
   207 Broy./Diag. 0.40E-01    1.5     0.01599392     -5417.6177996182  5.96E-02
   208 Broy./Diag. 0.40E-01    1.5     0.00674047     -5417.5939346599  2.39E-02
   209 Broy./Diag. 0.40E-01    1.5     0.00987057     -5417.5685226334  2.54E-02
   210 Broy./Diag. 0.40E-01    1.5     0.00415509     -5417.5792875047 -1.08E-02
   211 Broy./Diag. 0.40E-01    1.5     0.00131288     -5417.5642134315  1.51E-02
   212 Broy./Diag. 0.40E-01    1.5     0.01091420     -5417.5591432906  5.07E-03
   213 Broy./Diag. 0.40E-01    1.5     0.06491809     -5417.5696465163 -1.05E-02
   214 Broy./Diag. 0.40E-01    1.5     0.01661334     -5417.7072292422 -1.38E-01
   215 Broy./Diag. 0.40E-01    1.5     0.05390707     -5417.7967620402 -8.95E-02
   216 Broy./Diag. 0.40E-01    1.5     0.03264575     -5417.7479370485  4.88E-02
   217 Broy./Diag. 0.40E-01    1.5     0.02447835     -5417.7490251167 -1.09E-03
   218 Broy./Diag. 0.40E-01    1.5     0.00477336     -5417.7681413596 -1.91E-02
   219 Broy./Diag. 0.40E-01    1.5     0.01140246     -5417.7615659534  6.58E-03
   220 Broy./Diag. 0.40E-01    1.5     0.00724704     -5417.6936156115  6.80E-02
   221 Broy./Diag. 0.40E-01    1.5     0.01087973     -5417.6820321808  1.16E-02
   222 Broy./Diag. 0.40E-01    1.5     0.00308546     -5417.6643856073  1.76E-02
   223 Broy./Diag. 0.40E-01    1.5     0.01433494     -5417.6266019920  3.78E-02
   224 Broy./Diag. 0.40E-01    1.5     0.01805666     -5417.6305146379 -3.91E-03
   225 Broy./Diag. 0.40E-01    1.5     0.01037959     -5417.6215789190  8.94E-03
   226 Broy./Diag. 0.40E-01    1.5     0.00634259     -5417.6124810921  9.10E-03
   227 Broy./Diag. 0.40E-01    1.5     0.00205558     -5417.6016682165  1.08E-02
   228 Broy./Diag. 0.40E-01    1.5     0.01575779     -5417.6080906135 -6.42E-03
   229 Broy./Diag. 0.40E-01    1.5     0.01106633     -5417.5575053660  5.06E-02
   230 Broy./Diag. 0.40E-01    1.5     0.00627366     -5417.5052629844  5.22E-02
   231 Broy./Diag. 0.40E-01    1.5     0.00875162     -5417.6171663822 -1.12E-01
   232 Broy./Diag. 0.40E-01    1.5     0.01484025     -5417.6656919435 -4.85E-02
   233 Broy./Diag. 0.40E-01    1.5     0.00700347     -5417.7824243219 -1.17E-01
   234 Broy./Diag. 0.40E-01    1.5     0.00910688     -5417.7920766990 -9.65E-03
   235 Broy./Diag. 0.40E-01    1.5     0.01218035     -5417.7568288287  3.52E-02
   236 Broy./Diag. 0.40E-01    1.5     0.00742780     -5417.7475727482  9.26E-03
   237 Broy./Diag. 0.40E-01    1.5     0.00491488     -5417.7613761278 -1.38E-02
   238 Broy./Diag. 0.40E-01    1.5     0.00308000     -5417.7649570047 -3.58E-03
   239 Broy./Diag. 0.40E-01    1.5     0.00824441     -5417.8171406950 -5.22E-02
   240 Broy./Diag. 0.40E-01    1.5     0.00912323     -5417.7893642330  2.78E-02
   241 Broy./Diag. 0.40E-01    1.5     0.00341107     -5417.7509342719  3.84E-02
   242 Broy./Diag. 0.40E-01    1.5     0.00599268     -5417.6826795385  6.83E-02
   243 Broy./Diag. 0.40E-01    1.5     0.01169023     -5417.6276848067  5.50E-02
   244 Broy./Diag. 0.40E-01    1.5     0.00324641     -5417.5848847500  4.28E-02
   245 Broy./Diag. 0.40E-01    1.5     0.00414660     -5417.6036889793 -1.88E-02
   246 Broy./Diag. 0.40E-01    1.5     0.00220497     -5417.5673049651  3.64E-02
   247 Broy./Diag. 0.40E-01    1.5     0.00599991     -5417.5578719782  9.43E-03
   248 Broy./Diag. 0.40E-01    1.5     0.01106910     -5417.5724887955 -1.46E-02
   249 Broy./Diag. 0.40E-01    1.5     0.00396760     -5417.5395648172  3.29E-02
   250 Broy./Diag. 0.40E-01    1.5     0.01436194     -5417.5091407268  3.04E-02
   251 Broy./Diag. 0.40E-01    1.5     0.00730829     -5417.4426622744  6.65E-02
   252 Broy./Diag. 0.40E-01    1.5     0.00241748     -5417.4794714184 -3.68E-02
   253 Broy./Diag. 0.40E-01    1.5     0.00698165     -5417.5657239758 -8.63E-02
   254 Broy./Diag. 0.40E-01    1.5     0.00748369     -5417.5670608140 -1.34E-03
   255 Broy./Diag. 0.40E-01    1.5     0.01054211     -5417.5564856547  1.06E-02
   256 Broy./Diag. 0.40E-01    1.5     0.02031410     -5417.5545039583  1.98E-03
   257 Broy./Diag. 0.40E-01    1.5     0.01429141     -5417.4951957700  5.93E-02
   258 Broy./Diag. 0.40E-01    1.5     0.01144690     -5417.4906643449  4.53E-03
   259 Broy./Diag. 0.40E-01    1.5     0.01111077     -5417.4748727907  1.58E-02
   260 Broy./Diag. 0.40E-01    1.5     0.00278872     -5417.5335999861 -5.87E-02
   261 Broy./Diag. 0.40E-01    1.5     0.02726921     -5417.5553160442 -2.17E-02
   262 Broy./Diag. 0.40E-01    1.5     0.00515273     -5417.6194144301 -6.41E-02
   263 Broy./Diag. 0.40E-01    1.5     0.01352599     -5417.6324094776 -1.30E-02
   264 Broy./Diag. 0.40E-01    1.5     0.00567889     -5417.6759630594 -4.36E-02
   265 Broy./Diag. 0.40E-01    1.5     0.00941607     -5417.6318254661  4.41E-02
   266 Broy./Diag. 0.40E-01    1.5     0.03023021     -5417.6155950714  1.62E-02
   267 Broy./Diag. 0.40E-01    1.5     0.00613921     -5417.6132867438  2.31E-03
   268 Broy./Diag. 0.40E-01    1.5     0.01057851     -5417.6350090100 -2.17E-02
   269 Broy./Diag. 0.40E-01    1.5     0.04458922     -5417.6845657634 -4.96E-02
   270 Broy./Diag. 0.40E-01    1.5     0.01013765     -5417.7018424327 -1.73E-02
   271 Broy./Diag. 0.40E-01    1.5     0.00740189     -5417.7329962111 -3.12E-02
   272 Broy./Diag. 0.40E-01    1.5     0.02309851     -5417.6588401487  7.42E-02
   273 Broy./Diag. 0.40E-01    1.5     0.00260731     -5417.5856936062  7.31E-02
   274 Broy./Diag. 0.40E-01    1.5     0.02625722     -5417.5953309896 -9.64E-03
   275 Broy./Diag. 0.40E-01    1.5     0.01748229     -5417.6103175051 -1.50E-02
   276 Broy./Diag. 0.40E-01    1.5     0.01182239     -5417.6490400420 -3.87E-02
   277 Broy./Diag. 0.40E-01    1.5     0.00864978     -5417.7253232663 -7.63E-02
   278 Broy./Diag. 0.40E-01    1.5     0.02016409     -5417.7640377295 -3.87E-02
   279 Broy./Diag. 0.40E-01    1.5     0.03061686     -5417.7868952678 -2.29E-02
   280 Broy./Diag. 0.40E-01    1.5     0.01262068     -5417.6833179609  1.04E-01
   281 Broy./Diag. 0.40E-01    1.5     0.01259764     -5417.6217404281  6.16E-02
   282 Broy./Diag. 0.40E-01    1.5     0.03287740     -5417.6654053053 -4.37E-02
   283 Broy./Diag. 0.40E-01    1.5     0.03765738     -5417.6100375383  5.54E-02
   284 Broy./Diag. 0.40E-01    1.5     0.00887506     -5417.5807358998  2.93E-02
   285 Broy./Diag. 0.40E-01    1.5     0.01129798     -5417.5801079743  6.28E-04
   286 Broy./Diag. 0.40E-01    1.5     0.02369675     -5417.5315911775  4.85E-02
   287 Broy./Diag. 0.40E-01    1.5     0.04393250     -5417.5372860271 -5.69E-03
   288 Broy./Diag. 0.40E-01    1.5     0.01094001     -5417.7171519675 -1.80E-01
   289 Broy./Diag. 0.40E-01    1.5     0.00706202     -5417.8004290506 -8.33E-02
   290 Broy./Diag. 0.40E-01    1.5     0.00451205     -5417.7859317919  1.45E-02
   291 Broy./Diag. 0.40E-01    1.5     0.01244963     -5417.8063133468 -2.04E-02
   292 Broy./Diag. 0.40E-01    1.5     0.01864496     -5417.8526148161 -4.63E-02
   293 Broy./Diag. 0.40E-01    1.5     0.00962184     -5417.9731851701 -1.21E-01
   294 Broy./Diag. 0.40E-01    1.5     0.00539781     -5417.9623830917  1.08E-02
   295 Broy./Diag. 0.40E-01    1.5     0.05586630     -5418.0522651429 -8.99E-02
   296 Broy./Diag. 0.40E-01    1.5     0.05801736     -5418.0613324405 -9.07E-03
   297 Broy./Diag. 0.40E-01    1.5     0.02455048     -5417.9179151172  1.43E-01
   298 Broy./Diag. 0.40E-01    1.5     0.04316349     -5417.9010609676  1.69E-02
   299 Broy./Diag. 0.40E-01    1.5     0.02011331     -5417.8791007089  2.20E-02
   300 Broy./Diag. 0.40E-01    1.5     0.01382199     -5417.8199812998  5.91E-02
   301 Broy./Diag. 0.40E-01    1.5     0.02178284     -5417.7683965038  5.16E-02
   302 Broy./Diag. 0.40E-01    1.5     0.01919119     -5417.7692719697 -8.75E-04
   303 Broy./Diag. 0.40E-01    1.5     0.03210452     -5417.7638508028  5.42E-03
   304 Broy./Diag. 0.40E-01    1.5     0.02001930     -5417.7957389421 -3.19E-02
   305 Broy./Diag. 0.40E-01    1.5     0.00931848     -5417.8219776027 -2.62E-02
   306 Broy./Diag. 0.40E-01    1.5     0.01166649     -5417.8545051000 -3.25E-02
   307 Broy./Diag. 0.40E-01    1.5     0.04423516     -5417.8875238636 -3.30E-02
   308 Broy./Diag. 0.40E-01    1.5     0.09088587     -5417.8495745989  3.79E-02
   309 Broy./Diag. 0.40E-01    1.5     0.08448161     -5417.9821608922 -1.33E-01
   310 Broy./Diag. 0.40E-01    1.5     0.02598264     -5417.8268616865  1.55E-01
   311 Broy./Diag. 0.40E-01    1.5     0.08539124     -5417.8516118778 -2.48E-02
   312 Broy./Diag. 0.40E-01    1.5     0.01692819     -5417.9866706019 -1.35E-01
   313 Broy./Diag. 0.40E-01    1.5     0.01974900     -5417.9145786693  7.21E-02
   314 Broy./Diag. 0.40E-01    1.5     0.07575564     -5417.8515145999  6.31E-02
   315 Broy./Diag. 0.40E-01    1.5     0.02147033     -5417.7320707014  1.19E-01
   316 Broy./Diag. 0.40E-01    1.5     0.05946417     -5417.7027941702  2.93E-02
   317 Broy./Diag. 0.40E-01    1.5     0.04193298     -5417.6328882909  6.99E-02
   318 Broy./Diag. 0.40E-01    1.5     0.05450242     -5417.6183158327  1.46E-02
   319 Broy./Diag. 0.40E-01    1.5     0.03389557     -5417.7418036888 -1.23E-01
   320 Broy./Diag. 0.40E-01    1.5     0.02886937     -5417.6791300261  6.27E-02
   321 Broy./Diag. 0.40E-01    1.5     0.09230509     -5417.6874084454 -8.28E-03
   322 Broy./Diag. 0.40E-01    1.5     0.03289574     -5417.9049707215 -2.18E-01
   323 Broy./Diag. 0.40E-01    1.5     0.01844178     -5418.0736233013 -1.69E-01
   324 Broy./Diag. 0.40E-01    1.5     0.00557425     -5418.0770068863 -3.38E-03
   325 Broy./Diag. 0.40E-01    1.5     0.03808057     -5418.0240018071  5.30E-02
   326 Broy./Diag. 0.40E-01    1.5     0.01041253     -5418.0071478284  1.69E-02
   327 Broy./Diag. 0.40E-01    1.5     0.02897226     -5417.9809279119  2.62E-02
   328 Broy./Diag. 0.40E-01    1.5     0.01142991     -5417.9342771573  4.67E-02
   329 Broy./Diag. 0.40E-01    1.5     0.02829000     -5417.9852096956 -5.09E-02
   330 Broy./Diag. 0.40E-01    1.5     0.02312083     -5418.0324944562 -4.73E-02
   331 Broy./Diag. 0.40E-01    1.5     0.03705940     -5417.9804399312  5.21E-02
   332 Broy./Diag. 0.40E-01    1.5     0.02998942     -5417.9864302469 -5.99E-03
   333 Broy./Diag. 0.40E-01    1.5     0.11093613     -5418.0494081657 -6.30E-02
   334 Broy./Diag. 0.40E-01    1.5     0.06158507     -5418.0050124000  4.44E-02
   335 Broy./Diag. 0.40E-01    1.5     0.06280564     -5417.9753832607  2.96E-02
   336 Broy./Diag. 0.40E-01    1.5     0.08720096     -5417.8509078020  1.24E-01
   337 Broy./Diag. 0.40E-01    1.5     0.00747036     -5418.0884925546 -2.38E-01
   338 Broy./Diag. 0.40E-01    1.5     0.03798737     -5418.1288485342 -4.04E-02
   339 Broy./Diag. 0.40E-01    1.5     0.08984466     -5418.1226715496  6.18E-03
   340 Broy./Diag. 0.40E-01    1.5     0.04681999     -5418.1634202422 -4.07E-02
   341 Broy./Diag. 0.40E-01    1.5     0.05602094     -5418.2098795886 -4.65E-02
   342 Broy./Diag. 0.40E-01    1.5     0.01679473     -5418.1412459486  6.86E-02
   343 Broy./Diag. 0.40E-01    1.5     0.01486799     -5418.1395328641  1.71E-03
   344 Broy./Diag. 0.40E-01    1.5     0.02972564     -5418.1743896402 -3.49E-02
   345 Broy./Diag. 0.40E-01    1.5     0.04419142     -5418.2181644034 -4.38E-02
   346 Broy./Diag. 0.40E-01    1.5     0.01319221     -5418.0884166210  1.30E-01
   347 Broy./Diag. 0.40E-01    1.5     0.02297937     -5418.0611340140  2.73E-02
   348 Broy./Diag. 0.40E-01    1.5     0.03881774     -5418.0408554116  2.03E-02
   349 Broy./Diag. 0.40E-01    1.5     0.05889138     -5418.1419746617 -1.01E-01
   350 Broy./Diag. 0.40E-01    1.5     0.01935356     -5418.1882500429 -4.63E-02
   351 Broy./Diag. 0.40E-01    1.5     0.07603366     -5418.2575614336 -6.93E-02
   352 Broy./Diag. 0.40E-01    1.5     0.04291960     -5418.2777574614 -2.02E-02
   353 Broy./Diag. 0.40E-01    1.5     0.03762899     -5418.2427651846  3.50E-02
   354 Broy./Diag. 0.40E-01    1.5     0.04696716     -5418.2948804987 -5.21E-02
   355 Broy./Diag. 0.40E-01    1.5     0.02729208     -5418.6222425570 -3.27E-01
   356 Broy./Diag. 0.40E-01    1.5     0.07081569     -5418.7302558754 -1.08E-01
   357 Broy./Diag. 0.40E-01    1.5     0.00769156     -5418.7636321158 -3.34E-02
   358 Broy./Diag. 0.40E-01    1.5     0.05165748     -5418.7439416756  1.97E-02
   359 Broy./Diag. 0.40E-01    1.5     0.09657982     -5418.6662946487  7.76E-02
   360 Broy./Diag. 0.40E-01    1.5     0.04429782     -5418.4849439658  1.81E-01
   361 Broy./Diag. 0.40E-01    1.5     0.06089541     -5418.6310432024 -1.46E-01
   362 Broy./Diag. 0.40E-01    1.5     0.03881332     -5418.7418994054 -1.11E-01
   363 Broy./Diag. 0.40E-01    1.5     0.03691087     -5418.8849806662 -1.43E-01
   364 Broy./Diag. 0.40E-01    1.5     0.03670536     -5418.5840153114  3.01E-01
   365 Broy./Diag. 0.40E-01    1.5     0.03914704     -5418.4940595427  9.00E-02
   366 Broy./Diag. 0.40E-01    1.5     0.04264326     -5418.4642245089  2.98E-02
   367 Broy./Diag. 0.40E-01    1.5     0.05347141     -5418.7153382531 -2.51E-01
   368 Broy./Diag. 0.40E-01    1.5     0.04191784     -5418.5274834640  1.88E-01
   369 Broy./Diag. 0.40E-01    1.6     0.01923730     -5418.3274770164  2.00E-01
   370 Broy./Diag. 0.40E-01    1.5     0.11522031     -5418.4655099533 -1.38E-01
