 DBCSR| CPU Multiplication driver                                           XSMM (U)
 DBCSR| Multrec recursion limit                                              512 (U)
 DBCSR| Multiplication stack size                                           1000 (D)
 DBCSR| Maximum elements for images                                    UNLIMITED (U)
 DBCSR| Multiplicative factor virtual images                                   1 (U)
 DBCSR| Use multiplication densification                                       T (D)
 DBCSR| Multiplication size stacks                                             3 (U)
 DBCSR| Use memory pool for CPU allocation                                     F (U)
 DBCSR| Number of 3D layers                                               SINGLE (U)
 DBCSR| Use MPI memory allocation                                              F (U)
 DBCSR| Use RMA algorithm                                                      F (U)
 DBCSR| Use Communication thread                                               T (U)
 DBCSR| Communication thread load                                             87 (D)
 DBCSR| MPI: My process id                                                     0
 DBCSR| MPI: Number of processes                                             128
 DBCSR| OMP: Current number of threads                                         1
 DBCSR| OMP: Max number of threads                                             1
 DBCSR| Split modifier for TAS multiplication algorithm                  1.0E+00 (U)


  **** **** ******  **  PROGRAM STARTED AT               2023-02-14 14:34:22.496
 ***** ** ***  *** **   PROGRAM STARTED ON                             nid005113
 **    ****   ******    PROGRAM STARTED BY                                cahart
 ***** **    ** ** **   PROGRAM PROCESS ID                                202575
  **** **  *******  **  PROGRAM STARTED IN /mnt/lustre/a2fs-work2/work/e05/e05/c
                                           ahart/postdoc/masters/ni/archer2/slab
                                           /optimise/alpha-beta/scf_5e-4_mos-100
                                           0_temp-2000_spin-0.7-0.5_periodic-xyz
                                           /search/4.0E-01_1.0E-3

 CP2K| version string:                 CP2K version 2023.1 (Development Version)
 CP2K| source code revision number:                                  git:964cd58
 CP2K| cp2kflags: omp libint fftw3 libxc elpa parallel scalapack xsmm plumed2 mk
 CP2K|            l
 CP2K| is freely available from                            https://www.cp2k.org/
 CP2K| Program compiled at                          Mon 13 Feb 17:05:14 GMT 2023
 CP2K| Program compiled on                                                  ln01
 CP2K| Program compiled for                                              ARCHER2
 CP2K| Data directory path    /work/e05/e05/cahart/cp2k/cp2k-2023.1/cp2k-2023.1-
 CP2K| Input file name                                                  cp2k.inp

 GLOBAL| Force Environment number                                              1
 GLOBAL| Basis set file name                                        BASIS_MOLOPT
 GLOBAL| Potential file name                                      GTH_POTENTIALS
 GLOBAL| MM Potential file name                                     MM_POTENTIAL
 GLOBAL| Coordinate file name                                      __STD_INPUT__
 GLOBAL| Method name                                                        CP2K
 GLOBAL| Project name                                                    Ni_bulk
 GLOBAL| Run type                                                         ENERGY
 GLOBAL| FFT library                                                       FFTW3
 GLOBAL| Diagonalization library                                            ELPA
 GLOBAL| DGEMM library                                                      BLAS
 GLOBAL| Minimum number of eigenvectors for ELPA usage                        16
 GLOBAL| Orthonormality check for eigenvectors                          DISABLED
 GLOBAL| Matrix multiplication library                                 ScaLAPACK
 GLOBAL| All-to-all communication in single precision                          F
 GLOBAL| FFTs using library dependent lengths                                  F
 GLOBAL| Grid backend                                                       AUTO
 GLOBAL| Global print level                                               MEDIUM
 GLOBAL| MPI I/O enabled                                                       T
 GLOBAL| Total number of message passing processes                           128
 GLOBAL| Number of threads for this process                                    1
 GLOBAL| This output is from process                                           0
 GLOBAL| Stack size for threads created by OpenMP (OMP_STACKSIZE)        default
 GLOBAL| CPU model name                          AMD EPYC 7742 64-Core Processor
 GLOBAL| CPUID                                                              1002

 MEMORY| system memory details [Kb]
 MEMORY|                        rank 0           min           max       average
 MEMORY| MemTotal            263528084     263528084     263528084     263528084
 MEMORY| MemFree             238489068     238489068     238489068     238489068
 MEMORY| Buffers                 25784         25784         25784         25784
 MEMORY| Cached                 793308        793308        793308        793308
 MEMORY| Slab                  1720524       1720524       1720524       1720524
 MEMORY| SReclaimable           108352        108352        108352        108352
 MEMORY| MemLikelyFree       239416512     239416512     239416512     239416512


 *** Fundamental physical constants (SI units) ***

 *** Literature: B. J. Mohr and B. N. Taylor,
 ***             CODATA recommended values of the fundamental physical
 ***             constants: 2006, Web Version 5.1
 ***             http://physics.nist.gov/constants

 Speed of light in vacuum [m/s]                             2.99792458000000E+08
 Magnetic constant or permeability of vacuum [N/A**2]       1.25663706143592E-06
 Electric constant or permittivity of vacuum [F/m]          8.85418781762039E-12
 Planck constant (h) [J*s]                                  6.62606896000000E-34
 Planck constant (h-bar) [J*s]                              1.05457162825177E-34
 Elementary charge [C]                                      1.60217648700000E-19
 Electron mass [kg]                                         9.10938215000000E-31
 Electron g factor [ ]                                     -2.00231930436220E+00
 Proton mass [kg]                                           1.67262163700000E-27
 Fine-structure constant                                    7.29735253760000E-03
 Rydberg constant [1/m]                                     1.09737315685270E+07
 Avogadro constant [1/mol]                                  6.02214179000000E+23
 Boltzmann constant [J/K]                                   1.38065040000000E-23
 Atomic mass unit [kg]                                      1.66053878200000E-27
 Bohr radius [m]                                            5.29177208590000E-11

 *** Conversion factors ***

 [u] -> [a.u.]                                              1.82288848426455E+03
 [Angstrom] -> [Bohr] = [a.u.]                              1.88972613288564E+00
 [a.u.] = [Bohr] -> [Angstrom]                              5.29177208590000E-01
 [a.u.] -> [s]                                              2.41888432650478E-17
 [a.u.] -> [fs]                                             2.41888432650478E-02
 [a.u.] -> [J]                                              4.35974393937059E-18
 [a.u.] -> [N]                                              8.23872205491840E-08
 [a.u.] -> [K]                                              3.15774647902944E+05
 [a.u.] -> [kJ/mol]                                         2.62549961709828E+03
 [a.u.] -> [kcal/mol]                                       6.27509468713739E+02
 [a.u.] -> [Pa]                                             2.94210107994716E+13
 [a.u.] -> [bar]                                            2.94210107994716E+08
 [a.u.] -> [atm]                                            2.90362800883016E+08
 [a.u.] -> [eV]                                             2.72113838565563E+01
 [a.u.] -> [Hz]                                             6.57968392072181E+15
 [a.u.] -> [1/cm] (wave numbers)                            2.19474631370540E+05
 [a.u./Bohr**2] -> [1/cm]                                   5.14048714338585E+03
 

 CELL_TOP| Volume [angstrom^3]:                                       983.249569
 CELL_TOP| Vector a [angstrom     7.012     0.000     0.000   |a| =     7.011596
 CELL_TOP| Vector b [angstrom     0.000     7.012     0.000   |b| =     7.011596
 CELL_TOP| Vector c [angstrom     0.000     0.000    20.000   |c| =    20.000000
 CELL_TOP| Angle (b,c), alpha [degree]:                                90.000000
 CELL_TOP| Angle (a,c), beta  [degree]:                                90.000000
 CELL_TOP| Angle (a,b), gamma [degree]:                                90.000000
 CELL_TOP| Numerically orthorhombic:                                         YES
 CELL_TOP| Periodicity                                                       XYZ

 GENERATE|  Preliminary Number of Bonds generated:                             0
 GENERATE|  Achieved consistency in connectivity generation.

 CELL| Volume [angstrom^3]:                                           983.249569
 CELL| Vector a [angstrom]:       7.012     0.000     0.000   |a| =     7.011596
 CELL| Vector b [angstrom]:       0.000     7.012     0.000   |b| =     7.011596
 CELL| Vector c [angstrom]:       0.000     0.000    20.000   |c| =    20.000000
 CELL| Angle (b,c), alpha [degree]:                                    90.000000
 CELL| Angle (a,c), beta  [degree]:                                    90.000000
 CELL| Angle (a,b), gamma [degree]:                                    90.000000
 CELL| Numerically orthorhombic:                                             YES
 CELL| Periodicity                                                           XYZ

 CELL_REF| Volume [angstrom^3]:                                       983.249569
 CELL_REF| Vector a [angstrom     7.012     0.000     0.000   |a| =     7.011596
 CELL_REF| Vector b [angstrom     0.000     7.012     0.000   |b| =     7.011596
 CELL_REF| Vector c [angstrom     0.000     0.000    20.000   |c| =    20.000000
 CELL_REF| Angle (b,c), alpha [degree]:                                90.000000
 CELL_REF| Angle (a,c), beta  [degree]:                                90.000000
 CELL_REF| Angle (a,b), gamma [degree]:                                90.000000
 CELL_REF| Numerically orthorhombic:                                         YES
 CELL_REF| Periodicity                                                       XYZ

 *** WARNING in cryssym.F:165 :: Symmetry library SPGLIB not available ***


 *******************************************************************************
                                    Kpoints
 *******************************************************************************
 BRILLOUIN| K-point scheme                                        Monkhorst-Pack
 BRILLOUIN| K-Point grid                                             4    4    1
 BRILLOUIN| Accuracy in Symmetry determination                      0.100000E-05
 BRILLOUIN| K-Point point group symmetrization                               OFF
 BRILLOUIN| Wavefunction type                                            COMPLEX
 BRILLOUIN| List of Kpoints [2 Pi/Bohr]                                        8
 BRILLOUIN| Number           Weight            X              Y              Z
 BRILLOUIN|     1           0.12500       -0.37500       -0.37500        0.00000
 BRILLOUIN|     2           0.12500       -0.37500       -0.12500        0.00000
 BRILLOUIN|     3           0.12500       -0.37500        0.12500        0.00000
 BRILLOUIN|     4           0.12500       -0.37500        0.37500        0.00000
 BRILLOUIN|     5           0.12500       -0.12500       -0.37500        0.00000
 BRILLOUIN|     6           0.12500       -0.12500       -0.12500        0.00000
 BRILLOUIN|     7           0.12500       -0.12500        0.12500        0.00000
 BRILLOUIN|     8           0.12500       -0.12500        0.37500        0.00000
 *******************************************************************************

 *******************************************************************************
 *******************************************************************************
 **                                                                           **
 **     #####                         ##              ##                      **
 **    ##   ##            ##          ##              ##                      **
 **   ##     ##                       ##            ######                    **
 **   ##     ##  ##   ##  ##   #####  ##  ##   ####   ##    #####    #####    **
 **   ##     ##  ##   ##  ##  ##      ## ##   ##      ##   ##   ##  ##   ##   **
 **   ##  ## ##  ##   ##  ##  ##      ####     ###    ##   ######   ######    **
 **    ##  ###   ##   ##  ##  ##      ## ##      ##   ##   ##       ##        **
 **     #######   #####   ##   #####  ##  ##  ####    ##    #####   ##        **
 **           ##                                                    ##        **
 **                                                                           **
 **                                                ... make the atoms dance   **
 **                                                                           **
 **            Copyright (C) by CP2K developers group (2000-2023)             **
 **                      J. Chem. Phys. 152, 194103 (2020)                    **
 **                                                                           **
 *******************************************************************************

 *** WARNING in qs_environment.F:1456 :: Number of electrons will be ***
 *** overwritten by NELEC_ALPHA and NELEC_BETA, multiplicity will be ***
 *** ignored.                                                        ***

 Number of electrons should be                                               576
 Sum of NELEC_ALPHA and NELEC_BETA is                                    576.000

 *** WARNING in qs_environment.F:1488 :: NELEC_ALPHA is not an integer, ***
 *** many features will not be supported.                               ***


 *** WARNING in qs_environment.F:1500 :: NELEC_BETA is not an integer, ***
 *** many features will not be supported.                              ***


 *** WARNING in qs_environment.F:1532 :: More ADDED_MOs requested for beta ***
 *** spin than available.                                                  ***


 *** WARNING in qs_environment.F:1548 :: More added MOs requested than     ***
 *** available. The full set of unoccupied MOs will be used. Use           ***
 *** 'ADDED_MOS -1' to always use all available MOs and to get rid of this ***
 *** warning.                                                              ***


 DFT| Spin unrestricted (spin-polarized) Kohn-Sham calculation               UKS
 DFT| Multiplicity                                                             1
 DFT| Number of spin states                                                    2
 DFT| Charge                                                                   0
 DFT| Self-interaction correction (SIC)                                       NO
 DFT| Cutoffs: density                                              1.000000E-10
 DFT|          gradient                                             1.000000E-10
 DFT|          tau                                                  1.000000E-10
 DFT|          cutoff_smoothing_range                               0.000000E+00
 DFT| XC density smoothing                                                  NONE
 DFT| XC derivatives                                                          PW

 FUNCTIONAL| PBE:
 FUNCTIONAL| J.P.Perdew, K.Burke, M.Ernzerhof, Phys. Rev. Letter, vol. 77, n 18,
 FUNCTIONAL|  pp. 3865-3868, (1996){spin polarized}                             

 vdW POTENTIAL|                                                   Pair Potential
 vdW POTENTIAL|          DFT-D3 (Version 3.1)
 vdW POTENTIAL|          Potential Form: S. Grimme et al, JCP 132: 154104 (2010)
 vdW POTENTIAL|          Zero Damping
 vdW POTENTIAL|          Cutoff Radius [Bohr]:                             20.00
 vdW POTENTIAL|          s6 Scaling Factor:                               1.0000
 vdW POTENTIAL|          sr6 Scaling Factor:                              1.2170
 vdW POTENTIAL|          s8 Scaling Factor:                               0.7220
 vdW POTENTIAL|          Cutoff for CN calculation:                   0.1000E-05

 QS| Method:                                                                 GPW
 QS| Density plane wave grid type                        NON-SPHERICAL FULLSPACE
 QS| Number of grid levels:                                                    5
 QS| Density cutoff [a.u.]:                                                300.0
 QS| Multi grid cutoff [a.u.]: 1) grid level                               300.0
 QS|                           2) grid level                               100.0
 QS|                           3) grid level                                33.3
 QS|                           4) grid level                                11.1
 QS|                           5) grid level                                 3.7
 QS| Grid level progression factor:                                          3.0
 QS| Relative density cutoff [a.u.]:                                        30.0
 QS| Interaction thresholds: eps_pgf_orb:                                1.0E-06
 QS|                         eps_filter_matrix:                          0.0E+00
 QS|                         eps_core_charge:                            1.0E-14
 QS|                         eps_rho_gspace:                             1.0E-12
 QS|                         eps_rho_rspace:                             1.0E-12
 QS|                         eps_gvg_rspace:                             1.0E-06
 QS|                         eps_ppl:                                    1.0E-02
 QS|                         eps_ppnl:                                   1.0E-08


 ATOMIC KIND INFORMATION

  1. Atomic kind: Ni_i                                  Number of atoms:      16

     Orbital Basis Set                                        DZVP-MOLOPT-SR-GTH

       Number of orbital shell sets:                                           1
       Number of orbital shells:                                               8
       Number of primitive Cartesian functions:                                6
       Number of Cartesian basis functions:                                   31
       Number of spherical basis functions:                                   26
       Norm type:                                                              2

       Normalised Cartesian orbitals:

                        Set   Shell   Orbital            Exponent    Coefficient

                          1       1    2s               10.077428      -0.684558
                                                         5.847736      -0.844524
                                                         2.494033       1.088856
                                                         0.988355       0.395503
                                                         0.344978       0.010224
                                                         0.099466      -0.003250

                          1       2    3s               10.077428       0.096747
                                                         5.847736       0.162504
                                                         2.494033      -0.297192
                                                         0.988355      -0.319752
                                                         0.344978       0.088318
                                                         0.099466       0.118587

                          1       3    4s               10.077428       0.036437
                                                         5.847736      -0.381480
                                                         2.494033       0.003759
                                                         0.988355      -1.048256
                                                         0.344978       0.855825
                                                         0.099466      -0.176350

                          1       4    3px              10.077428      -3.133913
                                                         5.847736       3.027656
                                                         2.494033       2.353227
                                                         0.988355       0.554184
                                                         0.344978       0.019462
                                                         0.099466      -0.000291
                          1       4    3py              10.077428      -3.133913
                                                         5.847736       3.027656
                                                         2.494033       2.353227
                                                         0.988355       0.554184
                                                         0.344978       0.019462
                                                         0.099466      -0.000291
                          1       4    3pz              10.077428      -3.133913
                                                         5.847736       3.027656
                                                         2.494033       2.353227
                                                         0.988355       0.554184
                                                         0.344978       0.019462
                                                         0.099466      -0.000291

                          1       5    4px              10.077428      -0.112729
                                                         5.847736      -0.114008
                                                         2.494033      -0.347303
                                                         0.988355      -0.110323
                                                         0.344978       0.154096
                                                         0.099466       0.058386
                          1       5    4py              10.077428      -0.112729
                                                         5.847736      -0.114008
                                                         2.494033      -0.347303
                                                         0.988355      -0.110323
                                                         0.344978       0.154096
                                                         0.099466       0.058386
                          1       5    4pz              10.077428      -0.112729
                                                         5.847736      -0.114008
                                                         2.494033      -0.347303
                                                         0.988355      -0.110323
                                                         0.344978       0.154096
                                                         0.099466       0.058386

                          1       6    4dx2             10.077428       8.232726
                                                         5.847736       9.105758
                                                         2.494033       2.849835
                                                         0.988355       0.554319
                                                         0.344978       0.067245
                                                         0.099466       0.001940
                          1       6    4dxy             10.077428      14.259500
                                                         5.847736      15.771636
                                                         2.494033       4.936060
                                                         0.988355       0.960109
                                                         0.344978       0.116472
                                                         0.099466       0.003360
                          1       6    4dxz             10.077428      14.259500
                                                         5.847736      15.771636
                                                         2.494033       4.936060
                                                         0.988355       0.960109
                                                         0.344978       0.116472
                                                         0.099466       0.003360
                          1       6    4dy2             10.077428       8.232726
                                                         5.847736       9.105758
                                                         2.494033       2.849835
                                                         0.988355       0.554319
                                                         0.344978       0.067245
                                                         0.099466       0.001940
                          1       6    4dyz             10.077428      14.259500
                                                         5.847736      15.771636
                                                         2.494033       4.936060
                                                         0.988355       0.960109
                                                         0.344978       0.116472
                                                         0.099466       0.003360
                          1       6    4dz2             10.077428       8.232726
                                                         5.847736       9.105758
                                                         2.494033       2.849835
                                                         0.988355       0.554319
                                                         0.344978       0.067245
                                                         0.099466       0.001940

                          1       7    5dx2             10.077428      -2.715373
                                                         5.847736      -4.020640
                                                         2.494033      -1.397569
                                                         0.988355      -0.076143
                                                         0.344978       0.033435
                                                         0.099466       0.026032
                          1       7    5dxy             10.077428      -4.703164
                                                         5.847736      -6.963952
                                                         2.494033      -2.420661
                                                         0.988355      -0.131883
                                                         0.344978       0.057911
                                                         0.099466       0.045088
                          1       7    5dxz             10.077428      -4.703164
                                                         5.847736      -6.963952
                                                         2.494033      -2.420661
                                                         0.988355      -0.131883
                                                         0.344978       0.057911
                                                         0.099466       0.045088
                          1       7    5dy2             10.077428      -2.715373
                                                         5.847736      -4.020640
                                                         2.494033      -1.397569
                                                         0.988355      -0.076143
                                                         0.344978       0.033435
                                                         0.099466       0.026032
                          1       7    5dyz             10.077428      -4.703164
                                                         5.847736      -6.963952
                                                         2.494033      -2.420661
                                                         0.988355      -0.131883
                                                         0.344978       0.057911
                                                         0.099466       0.045088
                          1       7    5dz2             10.077428      -2.715373
                                                         5.847736      -4.020640
                                                         2.494033      -1.397569
                                                         0.988355      -0.076143
                                                         0.344978       0.033435
                                                         0.099466       0.026032

                          1       8    5fx3             10.077428      -0.467694
                                                         5.847736       0.618100
                                                         2.494033       0.066069
                                                         0.988355       0.262898
                                                         0.344978       0.004720
                                                         0.099466       0.007748
                          1       8    5fx2y            10.077428      -1.045795
                                                         5.847736       1.382114
                                                         2.494033       0.147734
                                                         0.988355       0.587859
                                                         0.344978       0.010555
                                                         0.099466       0.017325
                          1       8    5fx2z            10.077428      -1.045795
                                                         5.847736       1.382114
                                                         2.494033       0.147734
                                                         0.988355       0.587859
                                                         0.344978       0.010555
                                                         0.099466       0.017325
                          1       8    5fxy2            10.077428      -1.045795
                                                         5.847736       1.382114
                                                         2.494033       0.147734
                                                         0.988355       0.587859
                                                         0.344978       0.010555
                                                         0.099466       0.017325
                          1       8    5fxyz            10.077428      -1.811371
                                                         5.847736       2.393892
                                                         2.494033       0.255883
                                                         0.988355       1.018201
                                                         0.344978       0.018282
                                                         0.099466       0.030008
                          1       8    5fxz2            10.077428      -1.045795
                                                         5.847736       1.382114
                                                         2.494033       0.147734
                                                         0.988355       0.587859
                                                         0.344978       0.010555
                                                         0.099466       0.017325
                          1       8    5fy3             10.077428      -0.467694
                                                         5.847736       0.618100
                                                         2.494033       0.066069
                                                         0.988355       0.262898
                                                         0.344978       0.004720
                                                         0.099466       0.007748
                          1       8    5fy2z            10.077428      -1.045795
                                                         5.847736       1.382114
                                                         2.494033       0.147734
                                                         0.988355       0.587859
                                                         0.344978       0.010555
                                                         0.099466       0.017325
                          1       8    5fyz2            10.077428      -1.045795
                                                         5.847736       1.382114
                                                         2.494033       0.147734
                                                         0.988355       0.587859
                                                         0.344978       0.010555
                                                         0.099466       0.017325
                          1       8    5fz3             10.077428      -0.467694
                                                         5.847736       0.618100
                                                         2.494033       0.066069
                                                         0.988355       0.262898
                                                         0.344978       0.004720
                                                         0.099466       0.007748

       Atomic covalent radius [Angstrom]:                                  1.150

       Atomic van der Waals radius [Angstrom]:                             1.630

     GTH Potential information for                                   GTH-PBE-q18

       Description:                       Goedecker-Teter-Hutter pseudopotential
                                           Goedecker et al., PRB 54, 1703 (1996)
                                          Hartwigsen et al., PRB 58, 3641 (1998)
                                                      Krack, TCA 114, 145 (2005)

       Gaussian exponent of the core charge distribution:               4.081633
       Electronic configuration (s p d ...):                           4   6   8

       Parameters of the local part of the GTH pseudopotential:

                          rloc        C1          C2          C3          C4
                        0.350000    2.102166    0.648484

       Parameters of the non-local part of the GTH pseudopotential:

                   l      r(l)      h(i,j,l)

                   0    0.261295    0.622658    9.970227
                                    9.970227  -12.871507
                   1    0.224253  -11.142708   12.429566
                                   12.429566  -14.706861
                   2    0.215348  -12.628146

  2. Atomic kind: Ni_b                                  Number of atoms:      16

     Orbital Basis Set                                        DZVP-MOLOPT-SR-GTH

       Number of orbital shell sets:                                           1
       Number of orbital shells:                                               8
       Number of primitive Cartesian functions:                                6
       Number of Cartesian basis functions:                                   31
       Number of spherical basis functions:                                   26
       Norm type:                                                              2

       Normalised Cartesian orbitals:

                        Set   Shell   Orbital            Exponent    Coefficient

                          1       1    2s               10.077428      -0.684558
                                                         5.847736      -0.844524
                                                         2.494033       1.088856
                                                         0.988355       0.395503
                                                         0.344978       0.010224
                                                         0.099466      -0.003250

                          1       2    3s               10.077428       0.096747
                                                         5.847736       0.162504
                                                         2.494033      -0.297192
                                                         0.988355      -0.319752
                                                         0.344978       0.088318
                                                         0.099466       0.118587

                          1       3    4s               10.077428       0.036437
                                                         5.847736      -0.381480
                                                         2.494033       0.003759
                                                         0.988355      -1.048256
                                                         0.344978       0.855825
                                                         0.099466      -0.176350

                          1       4    3px              10.077428      -3.133913
                                                         5.847736       3.027656
                                                         2.494033       2.353227
                                                         0.988355       0.554184
                                                         0.344978       0.019462
                                                         0.099466      -0.000291
                          1       4    3py              10.077428      -3.133913
                                                         5.847736       3.027656
                                                         2.494033       2.353227
                                                         0.988355       0.554184
                                                         0.344978       0.019462
                                                         0.099466      -0.000291
                          1       4    3pz              10.077428      -3.133913
                                                         5.847736       3.027656
                                                         2.494033       2.353227
                                                         0.988355       0.554184
                                                         0.344978       0.019462
                                                         0.099466      -0.000291

                          1       5    4px              10.077428      -0.112729
                                                         5.847736      -0.114008
                                                         2.494033      -0.347303
                                                         0.988355      -0.110323
                                                         0.344978       0.154096
                                                         0.099466       0.058386
                          1       5    4py              10.077428      -0.112729
                                                         5.847736      -0.114008
                                                         2.494033      -0.347303
                                                         0.988355      -0.110323
                                                         0.344978       0.154096
                                                         0.099466       0.058386
                          1       5    4pz              10.077428      -0.112729
                                                         5.847736      -0.114008
                                                         2.494033      -0.347303
                                                         0.988355      -0.110323
                                                         0.344978       0.154096
                                                         0.099466       0.058386

                          1       6    4dx2             10.077428       8.232726
                                                         5.847736       9.105758
                                                         2.494033       2.849835
                                                         0.988355       0.554319
                                                         0.344978       0.067245
                                                         0.099466       0.001940
                          1       6    4dxy             10.077428      14.259500
                                                         5.847736      15.771636
                                                         2.494033       4.936060
                                                         0.988355       0.960109
                                                         0.344978       0.116472
                                                         0.099466       0.003360
                          1       6    4dxz             10.077428      14.259500
                                                         5.847736      15.771636
                                                         2.494033       4.936060
                                                         0.988355       0.960109
                                                         0.344978       0.116472
                                                         0.099466       0.003360
                          1       6    4dy2             10.077428       8.232726
                                                         5.847736       9.105758
                                                         2.494033       2.849835
                                                         0.988355       0.554319
                                                         0.344978       0.067245
                                                         0.099466       0.001940
                          1       6    4dyz             10.077428      14.259500
                                                         5.847736      15.771636
                                                         2.494033       4.936060
                                                         0.988355       0.960109
                                                         0.344978       0.116472
                                                         0.099466       0.003360
                          1       6    4dz2             10.077428       8.232726
                                                         5.847736       9.105758
                                                         2.494033       2.849835
                                                         0.988355       0.554319
                                                         0.344978       0.067245
                                                         0.099466       0.001940

                          1       7    5dx2             10.077428      -2.715373
                                                         5.847736      -4.020640
                                                         2.494033      -1.397569
                                                         0.988355      -0.076143
                                                         0.344978       0.033435
                                                         0.099466       0.026032
                          1       7    5dxy             10.077428      -4.703164
                                                         5.847736      -6.963952
                                                         2.494033      -2.420661
                                                         0.988355      -0.131883
                                                         0.344978       0.057911
                                                         0.099466       0.045088
                          1       7    5dxz             10.077428      -4.703164
                                                         5.847736      -6.963952
                                                         2.494033      -2.420661
                                                         0.988355      -0.131883
                                                         0.344978       0.057911
                                                         0.099466       0.045088
                          1       7    5dy2             10.077428      -2.715373
                                                         5.847736      -4.020640
                                                         2.494033      -1.397569
                                                         0.988355      -0.076143
                                                         0.344978       0.033435
                                                         0.099466       0.026032
                          1       7    5dyz             10.077428      -4.703164
                                                         5.847736      -6.963952
                                                         2.494033      -2.420661
                                                         0.988355      -0.131883
                                                         0.344978       0.057911
                                                         0.099466       0.045088
                          1       7    5dz2             10.077428      -2.715373
                                                         5.847736      -4.020640
                                                         2.494033      -1.397569
                                                         0.988355      -0.076143
                                                         0.344978       0.033435
                                                         0.099466       0.026032

                          1       8    5fx3             10.077428      -0.467694
                                                         5.847736       0.618100
                                                         2.494033       0.066069
                                                         0.988355       0.262898
                                                         0.344978       0.004720
                                                         0.099466       0.007748
                          1       8    5fx2y            10.077428      -1.045795
                                                         5.847736       1.382114
                                                         2.494033       0.147734
                                                         0.988355       0.587859
                                                         0.344978       0.010555
                                                         0.099466       0.017325
                          1       8    5fx2z            10.077428      -1.045795
                                                         5.847736       1.382114
                                                         2.494033       0.147734
                                                         0.988355       0.587859
                                                         0.344978       0.010555
                                                         0.099466       0.017325
                          1       8    5fxy2            10.077428      -1.045795
                                                         5.847736       1.382114
                                                         2.494033       0.147734
                                                         0.988355       0.587859
                                                         0.344978       0.010555
                                                         0.099466       0.017325
                          1       8    5fxyz            10.077428      -1.811371
                                                         5.847736       2.393892
                                                         2.494033       0.255883
                                                         0.988355       1.018201
                                                         0.344978       0.018282
                                                         0.099466       0.030008
                          1       8    5fxz2            10.077428      -1.045795
                                                         5.847736       1.382114
                                                         2.494033       0.147734
                                                         0.988355       0.587859
                                                         0.344978       0.010555
                                                         0.099466       0.017325
                          1       8    5fy3             10.077428      -0.467694
                                                         5.847736       0.618100
                                                         2.494033       0.066069
                                                         0.988355       0.262898
                                                         0.344978       0.004720
                                                         0.099466       0.007748
                          1       8    5fy2z            10.077428      -1.045795
                                                         5.847736       1.382114
                                                         2.494033       0.147734
                                                         0.988355       0.587859
                                                         0.344978       0.010555
                                                         0.099466       0.017325
                          1       8    5fyz2            10.077428      -1.045795
                                                         5.847736       1.382114
                                                         2.494033       0.147734
                                                         0.988355       0.587859
                                                         0.344978       0.010555
                                                         0.099466       0.017325
                          1       8    5fz3             10.077428      -0.467694
                                                         5.847736       0.618100
                                                         2.494033       0.066069
                                                         0.988355       0.262898
                                                         0.344978       0.004720
                                                         0.099466       0.007748

       Atomic covalent radius [Angstrom]:                                  1.150

       Atomic van der Waals radius [Angstrom]:                             1.630

     GTH Potential information for                                   GTH-PBE-q18

       Description:                       Goedecker-Teter-Hutter pseudopotential
                                           Goedecker et al., PRB 54, 1703 (1996)
                                          Hartwigsen et al., PRB 58, 3641 (1998)
                                                      Krack, TCA 114, 145 (2005)

       Gaussian exponent of the core charge distribution:               4.081633
       Electronic configuration (s p d ...):                           4   6   8

       Parameters of the local part of the GTH pseudopotential:

                          rloc        C1          C2          C3          C4
                        0.350000    2.102166    0.648484

       Parameters of the non-local part of the GTH pseudopotential:

                   l      r(l)      h(i,j,l)

                   0    0.261295    0.622658    9.970227
                                    9.970227  -12.871507
                   1    0.224253  -11.142708   12.429566
                                   12.429566  -14.706861
                   2    0.215348  -12.628146


 MOLECULE KIND INFORMATION


 All atoms are their own molecule, skipping detailed information


 TOTAL NUMBERS AND MAXIMUM NUMBERS

  Total number of            - Atomic kinds:                                   2
                             - Atoms:                                         32
                             - Shell sets:                                    32
                             - Shells:                                       256
                             - Primitive Cartesian functions:                192
                             - Cartesian basis functions:                    992
                             - Spherical basis functions:                    832

  Maximum angular momentum of- Orbital basis functions:                        3
                             - Local part of the GTH pseudopotential:          2
                             - Non-local part of the GTH pseudopotential:      3


 MODULE QUICKSTEP: ATOMIC COORDINATES IN ANGSTROM

   Atom Kind Element         X             Y             Z       Z(eff)     Mass
      1    1 Ni   28      0.876298      0.876298      7.370500  18.0000  58.6934
      2    1 Ni   28      0.876298      4.382298      7.370500  18.0000  58.6934
      3    1 Ni   28      2.629298      2.629298      7.370500  18.0000  58.6934
      4    1 Ni   28      2.629298      6.135298      7.370500  18.0000  58.6934
      5    1 Ni   28      4.382298      0.876298      7.370500  18.0000  58.6934
      6    1 Ni   28      4.382298      4.382298      7.370500  18.0000  58.6934
      7    1 Ni   28      6.135298      2.629298      7.370500  18.0000  58.6934
      8    1 Ni   28      6.135298      6.135298      7.370500  18.0000  58.6934
      9    2 Ni   28      0.876298      2.629298      9.123500  18.0000  58.6934
     10    2 Ni   28      0.876298      6.135298      9.123500  18.0000  58.6934
     11    2 Ni   28      2.629298      0.876298      9.123500  18.0000  58.6934
     12    2 Ni   28      2.629298      4.382298      9.123500  18.0000  58.6934
     13    2 Ni   28      4.382298      2.629298      9.123500  18.0000  58.6934
     14    2 Ni   28      4.382298      6.135298      9.123500  18.0000  58.6934
     15    2 Ni   28      6.135298      0.876298      9.123500  18.0000  58.6934
     16    2 Ni   28      6.135298      4.382298      9.123500  18.0000  58.6934
     17    2 Ni   28      0.876298      0.876298     10.876500  18.0000  58.6934
     18    2 Ni   28      0.876298      4.382298     10.876500  18.0000  58.6934
     19    2 Ni   28      2.629298      2.629298     10.876500  18.0000  58.6934
     20    2 Ni   28      2.629298      6.135298     10.876500  18.0000  58.6934
     21    2 Ni   28      4.382298      0.876298     10.876500  18.0000  58.6934
     22    2 Ni   28      4.382298      4.382298     10.876500  18.0000  58.6934
     23    2 Ni   28      6.135298      2.629298     10.876500  18.0000  58.6934
     24    2 Ni   28      6.135298      6.135298     10.876500  18.0000  58.6934
     25    1 Ni   28      0.876298      2.629298     12.629500  18.0000  58.6934
     26    1 Ni   28      0.876298      6.135298     12.629500  18.0000  58.6934
     27    1 Ni   28      2.629298      0.876298     12.629500  18.0000  58.6934
     28    1 Ni   28      2.629298      4.382298     12.629500  18.0000  58.6934
     29    1 Ni   28      4.382298      2.629298     12.629500  18.0000  58.6934
     30    1 Ni   28      4.382298      6.135298     12.629500  18.0000  58.6934
     31    1 Ni   28      6.135298      0.876298     12.629500  18.0000  58.6934
     32    1 Ni   28      6.135298      4.382298     12.629500  18.0000  58.6934



 SCF PARAMETERS         Density guess:                                    ATOMIC
                        --------------------------------------------------------
                        max_scf:                                             500
                        max_scf_history:                                       0
                        max_diis:                                              4
                        --------------------------------------------------------
                        eps_scf:                                        5.00E-04
                        eps_scf_history:                                0.00E+00
                        eps_diis:                                       1.00E-01
                        eps_eigval:                                     1.00E-05
                        --------------------------------------------------------
                        level_shift [a.u.]:                             0.000000
                        added MOs                                       534  553
                        --------------------------------------------------------
                        Mixing method:                            BROYDEN_MIXING
                                                charge density mixing in g-space
                        --------------------------------------------------------
                        Smear method:                                FERMI_DIRAC
                        Electronic temperature [K]:                       2000.0
                        Electronic temperature [a.u.]:                  6.33E-03
                        Accuracy threshold:                             1.00E-10
                        --------------------------------------------------------
                        No outer SCF

 PW_GRID| Information for grid number                                          1
 PW_GRID| Grid distributed over                                   128 processors
 PW_GRID| Real space group dimensions                                     8   16
 PW_GRID| the grid is blocked:                                               YES
 PW_GRID| Cutoff [a.u.]                                                    300.0
 PW_GRID| spherical cutoff:                                                   NO
 PW_GRID|   Bounds   1            -54      53                Points:         108
 PW_GRID|   Bounds   2            -54      53                Points:         108
 PW_GRID|   Bounds   3           -150     149                Points:         300
 PW_GRID| Volume element (a.u.^3)  0.1896E-02     Volume (a.u.^3)      6635.2971
 PW_GRID| Grid span                                                    FULLSPACE
 PW_GRID|   Distribution                         Average         Max         Min
 PW_GRID|   G-Vectors                            27337.5       28728       25272
 PW_GRID|   G-Rays                                 253.1         266         234
 PW_GRID|   Real Space Points                    27337.5       28728       25272

 PW_GRID| Information for grid number                                          2
 PW_GRID| Number of the reference grid                                         1
 PW_GRID| Grid distributed over                                   128 processors
 PW_GRID| Real space group dimensions                                     8   16
 PW_GRID| the grid is blocked:                                                NO
 PW_GRID| Cutoff [a.u.]                                                    100.0
 PW_GRID| spherical cutoff:                                                   NO
 PW_GRID|   Bounds   1            -30      29                Points:          60
 PW_GRID|   Bounds   2            -30      29                Points:          60
 PW_GRID|   Bounds   3            -90      89                Points:         180
 PW_GRID| Volume element (a.u.^3)  0.1024E-01     Volume (a.u.^3)      6635.2971
 PW_GRID| Grid span                                                    FULLSPACE
 PW_GRID|   Distribution                         Average         Max         Min
 PW_GRID|   G-Vectors                             5062.5       15960           0
 PW_GRID|   G-Rays                                  84.4         266           0
 PW_GRID|   Real Space Points                     5062.5        5760        3780

 PW_GRID| Information for grid number                                          3
 PW_GRID| Number of the reference grid                                         1
 PW_GRID| Grid distributed over                                   128 processors
 PW_GRID| Real space group dimensions                                     8   16
 PW_GRID| the grid is blocked:                                                NO
 PW_GRID| Cutoff [a.u.]                                                     33.3
 PW_GRID| spherical cutoff:                                                   NO
 PW_GRID|   Bounds   1            -18      17                Points:          36
 PW_GRID|   Bounds   2            -18      17                Points:          36
 PW_GRID|   Bounds   3            -50      49                Points:         100
 PW_GRID| Volume element (a.u.^3)  0.5120E-01     Volume (a.u.^3)      6635.2971
 PW_GRID| Grid span                                                    FULLSPACE
 PW_GRID|   Distribution                         Average         Max         Min
 PW_GRID|   G-Vectors                             1012.5        9576           0
 PW_GRID|   G-Rays                                  28.1         266           0
 PW_GRID|   Real Space Points                     1012.5        1500         800

 PW_GRID| Information for grid number                                          4
 PW_GRID| Number of the reference grid                                         1
 PW_GRID| Grid distributed over                                   128 processors
 PW_GRID| Real space group dimensions                                     8   16
 PW_GRID| the grid is blocked:                                                NO
 PW_GRID| Cutoff [a.u.]                                                     11.1
 PW_GRID| spherical cutoff:                                                   NO
 PW_GRID|   Bounds   1            -10       9                Points:          20
 PW_GRID|   Bounds   2            -10       9                Points:          20
 PW_GRID|   Bounds   3            -30      29                Points:          60
 PW_GRID| Volume element (a.u.^3)  0.2765         Volume (a.u.^3)      6635.2971
 PW_GRID| Grid span                                                    FULLSPACE
 PW_GRID|   Distribution                         Average         Max         Min
 PW_GRID|   G-Vectors                              187.5        3800           0
 PW_GRID|   G-Rays                                   9.4         190           0
 PW_GRID|   Real Space Points                      187.5         360         120

 PW_GRID| Information for grid number                                          5
 PW_GRID| Number of the reference grid                                         1
 PW_GRID| Grid distributed over                                   128 processors
 PW_GRID| Real space group dimensions                                     8   16
 PW_GRID| the grid is blocked:                                                NO
 PW_GRID| Cutoff [a.u.]                                                      3.7
 PW_GRID| spherical cutoff:                                                   NO
 PW_GRID|   Bounds   1             -6       5                Points:          12
 PW_GRID|   Bounds   2             -6       5                Points:          12
 PW_GRID|   Bounds   3            -18      17                Points:          36
 PW_GRID| Volume element (a.u.^3)   1.280         Volume (a.u.^3)      6635.2971
 PW_GRID| Grid span                                                    FULLSPACE
 PW_GRID|   Distribution                         Average         Max         Min
 PW_GRID|   G-Vectors                               40.5        1296           0
 PW_GRID|   G-Rays                                   3.4         108           0
 PW_GRID|   Real Space Points                       40.5          72           0

 POISSON| Solver                                                        PERIODIC
 POISSON| Periodicity                                                        XYZ

 RS_GRID| Information for grid number                                          1
 RS_GRID|   Bounds   1            -54      53                Points:         108
 RS_GRID|   Bounds   2            -54      53                Points:         108
 RS_GRID|   Bounds   3           -150     149                Points:         300
 RS_GRID| Real space distribution over                                  8 groups
 RS_GRID| Real space distribution along direction                              2
 RS_GRID| Border size                                                         28
 RS_GRID| Real space distribution over                                 16 groups
 RS_GRID| Real space distribution along direction                              3
 RS_GRID| Border size                                                         28
 RS_GRID|   Distribution                         Average         Max         Min
 RS_GRID|   Planes                                  69.5          70          69
 RS_GRID|   Distribution                         Average         Max         Min
 RS_GRID|   Planes                                  74.8          75          74

 RS_GRID| Information for grid number                                          2
 RS_GRID|   Bounds   1            -30      29                Points:          60
 RS_GRID|   Bounds   2            -30      29                Points:          60
 RS_GRID|   Bounds   3            -90      89                Points:         180
 RS_GRID| Real space fully replicated
 RS_GRID| Group size                                                           1

 RS_GRID| Information for grid number                                          3
 RS_GRID|   Bounds   1            -18      17                Points:          36
 RS_GRID|   Bounds   2            -18      17                Points:          36
 RS_GRID|   Bounds   3            -50      49                Points:         100
 RS_GRID| Real space fully replicated
 RS_GRID| Group size                                                           1

 RS_GRID| Information for grid number                                          4
 RS_GRID|   Bounds   1            -10       9                Points:          20
 RS_GRID|   Bounds   2            -10       9                Points:          20
 RS_GRID|   Bounds   3            -30      29                Points:          60
 RS_GRID| Real space fully replicated
 RS_GRID| Group size                                                           1

 RS_GRID| Information for grid number                                          5
 RS_GRID|   Bounds   1             -6       5                Points:          12
 RS_GRID|   Bounds   2             -6       5                Points:          12
 RS_GRID|   Bounds   3            -18      17                Points:          36
 RS_GRID| Real space fully replicated
 RS_GRID| Group size                                                           1

 Spin 1

 Number of electrons:                                                        297.600
 Number of occupied orbitals:                                                298
 Number of molecular orbitals:                                               832

 Spin 2

 Number of electrons:                                                        278.400
 Number of occupied orbitals:                                                279
 Number of molecular orbitals:                                               832

 Number of orbital functions:                                                832
 Number of independent orbital functions:                                    832

 Extrapolation method: initial_guess

 Atomic guess: The first density matrix is obtained in terms of atomic orbitals
               and electronic configurations assigned to each atomic kind

 Guess for atomic kind: Ni_i

 Electronic structure
    Total number of core electrons                                         10.00
    Total number of valence electrons                                      18.00
    Total number of electrons                                              28.00
    Multiplicity                                                         doublet
    Alpha Electrons
    S   [  1.00  1.00] 1.00  1.00
    P   [  3.00] 3.00
    D      4.35
    Beta Electrons
    S   [  1.00  1.00] 1.00  1.00
    P   [  3.00] 3.00
    D      3.65


 *******************************************************************************
                  Iteration          Convergence                     Energy [au]
 *******************************************************************************
                          1         1.51729                    -167.067424631347
                          2         15.3902                    -156.642654318634
                          3         2.33433                    -168.319355313541
                          4        0.206730                    -168.609905008081
                          5        0.814175E-01                -168.612873080494
                          6        0.173318E-01                -168.613470181066
                          7        0.290432E-02                -168.613543571401
                          8        0.311825E-02                -168.613543401474
                          9        0.179670E-03                -168.613544404477
                         10        0.169386E-02                -168.613544207811
                         11        0.473341E-03                -168.613544360253
                         12        0.165417E-03                -168.613544400419
                         13        0.162622E-03                -168.613544401489
                         14        0.158325E-03                -168.613544403900
                         15        0.177007E-03                -168.613544402509
                         16        0.138916E-03                -168.613544404900
                         17        0.934549E-04                -168.613544406149
                         18        0.119916E-03                -168.613544405789
                         19        0.131607E-03                -168.613544405591
                         20        0.169309E-03                -168.613544404773
                         21        0.551337E-04                -168.613544406656
                         22        0.382664E-04                -168.613544406759
                         23        0.378942E-04                -168.613544406765
                         24        0.381089E-04                -168.613544406765
                         25        0.390835E-04                -168.613544406759
                         26        0.308614E-04                -168.613544406841
                         27        0.205044E-04                -168.613544406892
                         28        0.200942E-04                -168.613544406893
                         29        0.199375E-04                -168.613544406893
                         30        0.200198E-04                -168.613544406894
                         31        0.161325E-04                -168.613544406903
                         32        0.330614E-05                -168.613544406925
                         33        0.238713E-05                -168.613544406926
                         34        0.265439E-05                -168.613544406926
                         35        0.277073E-05                -168.613544406926
                         36        0.335175E-05                -168.613544406926
                         37        0.148809E-05                -168.613544406927
                         38        0.133447E-05                -168.613544406927
                         39        0.918735E-06                -168.613544406927

 Energy components [Hartree]           Total Energy ::         -168.613544406927
                                        Band Energy ::          -26.569761966525
                                     Kinetic Energy ::           97.306723392622
                                   Potential Energy ::         -265.920267799548
                                      Virial (-V/T) ::            2.732804666812
                                        Core Energy ::         -299.567979157577
                                          XC Energy ::          -16.227189041387
                                     Coulomb Energy ::          147.181623792037
                       Total Pseudopotential Energy ::         -396.961043505191
                       Local Pseudopotential Energy ::         -362.648291121960
                    Nonlocal Pseudopotential Energy ::          -34.312752383230
                                        Confinement ::            0.863409549921

 Orbital energies  State     Spin  L     Occupation   Energy[a.u.]    Energy[eV]

                       1    alpha  0          1.000      -4.172666   -113.544030
                       2    alpha  0          1.000      -0.181431     -4.936983
                       1     beta  0          1.000      -4.140640   -112.672541
                       2     beta  0          1.000      -0.176372     -4.799339

                       1    alpha  1          3.000      -2.578739    -70.171064
                       1     beta  1          3.000      -2.547579    -69.323162

                       1    alpha  2          4.350      -0.327039     -8.899191
                       1     beta  2          3.650      -0.300569     -8.178887


 Total Electron Density at R=0:                                         0.030422

 Guess for atomic kind: Ni_b

 Electronic structure
    Total number of core electrons                                         10.00
    Total number of valence electrons                                      18.00
    Total number of electrons                                              28.00
    Multiplicity                                                         doublet
    Alpha Electrons
    S   [  1.00  1.00] 1.00  1.00
    P   [  3.00] 3.00
    D      4.25
    Beta Electrons
    S   [  1.00  1.00] 1.00  1.00
    P   [  3.00] 3.00
    D      3.75


 *******************************************************************************
                  Iteration          Convergence                     Energy [au]
 *******************************************************************************
                          1         1.51687                    -167.065012761055
                          2         14.9817                    -156.620431300845
                          3         2.25575                    -168.317311438693
                          4        0.189210                    -168.607926092750
                          5        0.708658E-01                -168.610773319290
                          6        0.122256E-01                -168.611238205502
                          7        0.598421E-02                -168.611272268995
                          8        0.528277E-02                -168.611272438110
                          9        0.104644E-02                -168.611275321653
                         10        0.260234E-02                -168.611274926630
                         11        0.975322E-03                -168.611275328217
                         12        0.161067E-03                -168.611275447773
                         13        0.147413E-03                -168.611275446839
                         14        0.115114E-03                -168.611275449434
                         15        0.167217E-03                -168.611275445436
                         16        0.255374E-04                -168.611275450531
                         17        0.418369E-04                -168.611275450414
                         18        0.393709E-04                -168.611275450477
                         19        0.239931E-04                -168.611275450542
                         20        0.173885E-04                -168.611275450557
                         21        0.851368E-05                -168.611275450578
                         22        0.849928E-05                -168.611275450580
                         23        0.544937E-05                -168.611275450584
                         24        0.540003E-05                -168.611275450586
                         25        0.613371E-05                -168.611275450584
                         26        0.311593E-06                -168.611275450588

 Energy components [Hartree]           Total Energy ::         -168.611275450588
                                        Band Energy ::          -26.568680144499
                                     Kinetic Energy ::           97.303659243130
                                   Potential Energy ::         -265.914934693718
                                      Virial (-V/T) ::            2.732835915546
                                        Core Energy ::         -299.566189183323
                                          XC Energy ::          -16.224592878785
                                     Coulomb Energy ::          147.179506611520
                       Total Pseudopotential Energy ::         -396.956189041778
                       Local Pseudopotential Energy ::         -362.645043136649
                    Nonlocal Pseudopotential Energy ::          -34.311145905129
                                        Confinement ::            0.863406153250

 Orbital energies  State     Spin  L     Occupation   Energy[a.u.]    Energy[eV]

                       1    alpha  0          1.000      -4.168335   -113.426177
                       2    alpha  0          1.000      -0.180730     -4.917906
                       1     beta  0          1.000      -4.145459   -112.803683
                       2     beta  0          1.000      -0.177117     -4.819606

                       1    alpha  1          3.000      -2.574525    -70.056390
                       1     beta  1          3.000      -2.552268    -69.450746

                       1    alpha  2          4.250      -0.323446     -8.801405
                       1     beta  2          3.750      -0.304537     -8.286881


 Total Electron Density at R=0:                                         0.030429

 Spin 1
 Re-scaling the density matrix to get the right number of electrons for spin 1
                  # Electrons              Trace(P)               Scaling factor
                        297.600             297.600                        1.000

 Spin 2
 Re-scaling the density matrix to get the right number of electrons for spin 2
                  # Electrons              Trace(P)               Scaling factor
                        278.400             278.400                        1.000


 SCF WAVEFUNCTION OPTIMIZATION

  Step     Update method      Time    Convergence         Total energy    Change
  ------------------------------------------------------------------------------
     1 NoMix/Diag. 0.40E+00    1.5     0.87318318     -5426.4441344177 -5.43E+03
     2 Broy./Diag. 0.40E+00    1.5     0.35240818     -5353.2879118101  7.32E+01
[...]
   137 Broy./Diag. 0.40E+00    1.5     0.01824118     -5417.8663267715 -1.72E-03
   138 Broy./Diag. 0.40E+00    1.5     0.01321186     -5417.8402740631  2.61E-02
   139 Broy./Diag. 0.40E+00    1.5     0.00824980     -5417.8155026452  2.48E-02
   140 Broy./Diag. 0.40E+00    1.5     0.01052949     -5417.6424669567  1.73E-01
   141 Broy./Diag. 0.40E+00    1.5     0.01246433     -5417.7082369614 -6.58E-02
   142 Broy./Diag. 0.40E+00    1.5     0.00934897     -5417.9311374382 -2.23E-01
   143 Broy./Diag. 0.40E+00    1.5     0.01094299     -5417.9151317859  1.60E-02
   144 Broy./Diag. 0.40E+00    1.5     0.01199746     -5417.8180543390  9.71E-02
   145 Broy./Diag. 0.40E+00    1.5     0.01173074     -5417.6882082507  1.30E-01
   146 Broy./Diag. 0.40E+00    1.5     0.00872150     -5417.6170992277  7.11E-02
   147 Broy./Diag. 0.40E+00    1.5     0.01718059     -5417.6930303464 -7.59E-02
   148 Broy./Diag. 0.40E+00    1.5     0.01771799     -5417.8650955195 -1.72E-01
   149 Broy./Diag. 0.40E+00    1.5     0.02214168     -5417.8917137618 -2.66E-02
   150 Broy./Diag. 0.40E+00    1.5     0.02033235     -5417.8870249701  4.69E-03
   151 Broy./Diag. 0.40E+00    1.5     0.01932501     -5417.6666593337  2.20E-01
   152 Broy./Diag. 0.40E+00    1.5     0.02429753     -5417.5810888425  8.56E-02
   153 Broy./Diag. 0.40E+00    1.5     0.02282087     -5417.7358500053 -1.55E-01
   154 Broy./Diag. 0.40E+00    1.5     0.02579297     -5417.8932938248 -1.57E-01
   155 Broy./Diag. 0.40E+00    1.5     0.01851186     -5417.9774561034 -8.42E-02
   156 Broy./Diag. 0.40E+00    1.5     0.01578053     -5417.7891111213  1.88E-01
   157 Broy./Diag. 0.40E+00    1.5     0.01200908     -5417.6124205402  1.77E-01
   158 Broy./Diag. 0.40E+00    1.5     0.02230872     -5417.6070051385  5.42E-03
   159 Broy./Diag. 0.40E+00    1.5     0.02305433     -5417.9150398084 -3.08E-01
   160 Broy./Diag. 0.40E+00    1.5     0.02487241     -5418.0143324484 -9.93E-02
   161 Broy./Diag. 0.40E+00    1.5     0.02562097     -5417.8447688999  1.70E-01
   162 Broy./Diag. 0.40E+00    1.5     0.02537051     -5417.6116569102  2.33E-01
   163 Broy./Diag. 0.40E+00    1.5     0.03093588     -5417.5544603853  5.72E-02
   164 Broy./Diag. 0.40E+00    1.5     0.02916847     -5417.6877587910 -1.33E-01
   165 Broy./Diag. 0.40E+00    1.5     0.02522558     -5417.8272053312 -1.39E-01
   166 Broy./Diag. 0.40E+00    1.5     0.02117053     -5418.1655437720 -3.38E-01
   167 Broy./Diag. 0.40E+00    1.5     0.02449161     -5417.7029440722  4.63E-01
   168 Broy./Diag. 0.40E+00    1.5     0.02491421     -5417.5901374078  1.13E-01
   169 Broy./Diag. 0.40E+00    1.5     0.02410326     -5417.4737420628  1.16E-01
   170 Broy./Diag. 0.40E+00    1.5     0.03505750     -5418.0653298559 -5.92E-01
   171 Broy./Diag. 0.40E+00    1.5     0.03951185     -5418.1192340501 -5.39E-02
   172 Broy./Diag. 0.40E+00    1.5     0.03508669     -5417.9619926048  1.57E-01
   173 Broy./Diag. 0.40E+00    1.5     0.03466324     -5417.5301119513  4.32E-01
   174 Broy./Diag. 0.40E+00    1.5     0.03966998     -5417.3573678052  1.73E-01
   175 Broy./Diag. 0.40E+00    1.5     0.02797801     -5417.6150624333 -2.58E-01
   176 Broy./Diag. 0.40E+00    1.5     0.02874175     -5418.0145651472 -4.00E-01
   177 Broy./Diag. 0.40E+00    1.5     0.02999253     -5418.1592970270 -1.45E-01
   178 Broy./Diag. 0.40E+00    1.5     0.03340708     -5417.9308598306  2.28E-01
   179 Broy./Diag. 0.40E+00    1.5     0.02493183     -5417.6870141045  2.44E-01
   180 Broy./Diag. 0.40E+00    1.5     0.03124857     -5417.5071525509  1.80E-01
   181 Broy./Diag. 0.40E+00    1.5     0.04177437     -5417.5144621451 -7.31E-03
   182 Broy./Diag. 0.40E+00    1.5     0.04500683     -5417.8841276518 -3.70E-01
   183 Broy./Diag. 0.40E+00    1.5     0.04068194     -5418.1066254560 -2.22E-01
   184 Broy./Diag. 0.40E+00    1.5     0.03832627     -5417.8983516812  2.08E-01
   185 Broy./Diag. 0.40E+00    1.5     0.02611184     -5417.6807511291  2.18E-01
   186 Broy./Diag. 0.40E+00    1.5     0.02784171     -5417.3493582309  3.31E-01
   187 Broy./Diag. 0.40E+00    1.5     0.02990793     -5417.7393712540 -3.90E-01
   188 Broy./Diag. 0.40E+00    1.5     0.02337278     -5418.2302681673 -4.91E-01
   189 Broy./Diag. 0.40E+00    1.5     0.02212517     -5418.0149277217  2.15E-01
   190 Broy./Diag. 0.40E+00    1.5     0.01999208     -5417.7953534195  2.20E-01
   191 Broy./Diag. 0.40E+00    1.5     0.02719575     -5417.4430012642  3.52E-01
   192 Broy./Diag. 0.40E+00    1.5     0.02915610     -5417.4893803384 -4.64E-02
   193 Broy./Diag. 0.40E+00    1.5     0.02900157     -5418.1529956085 -6.64E-01
   194 Broy./Diag. 0.40E+00    1.5     0.03228417     -5418.1592607364 -6.27E-03
   195 Broy./Diag. 0.40E+00    1.5     0.05145244     -5418.0034707414  1.56E-01
   196 Broy./Diag. 0.40E+00    1.5     0.05919779     -5417.6985091964  3.05E-01
   197 Broy./Diag. 0.40E+00    1.5     0.03524770     -5417.2046624291  4.94E-01
   198 Broy./Diag. 0.40E+00    1.5     0.03553086     -5417.5064152423 -3.02E-01
   199 Broy./Diag. 0.40E+00    1.5     0.02717113     -5417.9526078378 -4.46E-01
   200 Broy./Diag. 0.40E+00    1.5     0.03563042     -5418.1982599622 -2.46E-01
   201 Broy./Diag. 0.40E+00    1.5     0.03400214     -5418.0191951667  1.79E-01
   202 Broy./Diag. 0.40E+00    1.5     0.03787271     -5417.4941642780  5.25E-01
   203 Broy./Diag. 0.40E+00    1.5     0.03324509     -5417.2325788654  2.62E-01
   204 Broy./Diag. 0.40E+00    1.5     0.01252968     -5417.6902786587 -4.58E-01
   205 Broy./Diag. 0.40E+00    1.5     0.01789996     -5418.2280996552 -5.38E-01
   206 Broy./Diag. 0.40E+00    1.5     0.02845252     -5418.1119241674  1.16E-01
   207 Broy./Diag. 0.40E+00    1.5     0.03414764     -5417.8952463575  2.17E-01
   208 Broy./Diag. 0.40E+00    1.5     0.02639047     -5417.5733831404  3.22E-01
   209 Broy./Diag. 0.40E+00    1.5     0.02650539     -5417.3260488805  2.47E-01
   210 Broy./Diag. 0.40E+00    1.5     0.02568792     -5417.5455163490 -2.19E-01
   211 Broy./Diag. 0.40E+00    1.5     0.02350189     -5418.2881850007 -7.43E-01
   212 Broy./Diag. 0.40E+00    1.5     0.02606934     -5418.2219816103  6.62E-02
   213 Broy./Diag. 0.40E+00    1.5     0.03044715     -5417.9463267900  2.76E-01
   214 Broy./Diag. 0.40E+00    1.5     0.02156632     -5417.6465767207  3.00E-01
   215 Broy./Diag. 0.40E+00    1.5     0.02252406     -5417.3157263813  3.31E-01
   216 Broy./Diag. 0.40E+00    1.5     0.02148214     -5417.7155344881 -4.00E-01
   217 Broy./Diag. 0.40E+00    1.5     0.02692992     -5418.1778247234 -4.62E-01
   218 Broy./Diag. 0.40E+00    1.5     0.03690664     -5417.9980239217  1.80E-01
   219 Broy./Diag. 0.40E+00    1.5     0.03841794     -5417.9734241894  2.46E-02
   220 Broy./Diag. 0.40E+00    1.5     0.03014661     -5417.5518367040  4.22E-01
   221 Broy./Diag. 0.40E+00    1.5     0.03362208     -5417.3112761994  2.41E-01
   222 Broy./Diag. 0.40E+00    1.5     0.02981863     -5417.5896625046 -2.78E-01
   223 Broy./Diag. 0.40E+00    1.5     0.03173278     -5418.4504425661 -8.61E-01
   224 Broy./Diag. 0.40E+00    1.5     0.03211243     -5418.2467660387  2.04E-01
   225 Broy./Diag. 0.40E+00    1.5     0.03533301     -5417.8384648059  4.08E-01
   226 Broy./Diag. 0.40E+00    1.5     0.03571749     -5417.3669598106  4.72E-01
   227 Broy./Diag. 0.40E+00    1.5     0.03295539     -5417.3604876773  6.47E-03
   228 Broy./Diag. 0.40E+00    1.5     0.02605217     -5417.7409537980 -3.80E-01
   229 Broy./Diag. 0.40E+00    1.5     0.01548069     -5418.2027310323 -4.62E-01
   230 Broy./Diag. 0.40E+00    1.5     0.01389682     -5418.0209435716  1.82E-01
   231 Broy./Diag. 0.40E+00    1.5     0.02327074     -5417.6809947536  3.40E-01
   232 Broy./Diag. 0.40E+00    1.5     0.03040015     -5417.4746903034  2.06E-01
   233 Broy./Diag. 0.40E+00    1.5     0.03192132     -5417.4608811105  1.38E-02
   234 Broy./Diag. 0.40E+00    1.5     0.03245873     -5417.7740679128 -3.13E-01
   235 Broy./Diag. 0.40E+00    1.5     0.03834343     -5417.9881503475 -2.14E-01
   236 Broy./Diag. 0.40E+00    1.5     0.03645931     -5418.1204891817 -1.32E-01
   237 Broy./Diag. 0.40E+00    1.5     0.06572632     -5418.0949379842  2.56E-02
   238 Broy./Diag. 0.40E+00    1.5     0.05664761     -5417.6272320984  4.68E-01
   239 Broy./Diag. 0.40E+00    1.5     0.03782059     -5417.2015329005  4.26E-01
   240 Broy./Diag. 0.40E+00    1.5     0.04638048     -5417.9719218173 -7.70E-01
   241 Broy./Diag. 0.40E+00    1.5     0.02908304     -5418.1277776280 -1.56E-01
   242 Broy./Diag. 0.40E+00    1.5     0.02924996     -5418.1574737701 -2.97E-02
   243 Broy./Diag. 0.40E+00    1.5     0.02407145     -5417.6085253718  5.49E-01
   244 Broy./Diag. 0.40E+00    1.5     0.03104256     -5417.2400039948  3.69E-01
   245 Broy./Diag. 0.40E+00    1.5     0.02816306     -5417.5937968300 -3.54E-01
   246 Broy./Diag. 0.40E+00    1.5     0.04713162     -5417.7415779458 -1.48E-01
   247 Broy./Diag. 0.40E+00    1.5     0.04640767     -5418.0903118153 -3.49E-01
   248 Broy./Diag. 0.40E+00    1.5     0.04457640     -5418.1594005087 -6.91E-02
   249 Broy./Diag. 0.40E+00    1.5     0.04066495     -5417.6147876512  5.45E-01
   250 Broy./Diag. 0.40E+00    1.5     0.04548117     -5417.0635892236  5.51E-01
   251 Broy./Diag. 0.40E+00    1.5     0.03673936     -5417.6668338154 -6.03E-01
   252 Broy./Diag. 0.40E+00    1.5     0.03690162     -5418.1854217398 -5.19E-01
   253 Broy./Diag. 0.40E+00    1.5     0.04231597     -5418.2185157481 -3.31E-02
   254 Broy./Diag. 0.40E+00    1.5     0.03781810     -5418.0047444435  2.14E-01
   255 Broy./Diag. 0.40E+00    1.5     0.03778108     -5417.1317116911  8.73E-01
   256 Broy./Diag. 0.40E+00    1.5     0.05179941     -5417.4900812815 -3.58E-01
   257 Broy./Diag. 0.40E+00    1.5     0.05536184     -5417.6027816937 -1.13E-01
   258 Broy./Diag. 0.40E+00    1.5     0.05425457     -5417.9816858353 -3.79E-01
   259 Broy./Diag. 0.40E+00    1.5     0.04362079     -5418.4270906326 -4.45E-01
   260 Broy./Diag. 0.40E+00    1.5     0.04814090     -5417.5790543251  8.48E-01
   261 Broy./Diag. 0.40E+00    1.5     0.03727407     -5417.1578180059  4.21E-01
   262 Broy./Diag. 0.40E+00    1.5     0.05714395     -5417.4657355689 -3.08E-01
   263 Broy./Diag. 0.40E+00    1.5     0.06578972     -5418.0230002128 -5.57E-01
   264 Broy./Diag. 0.40E+00    1.5     0.04115480     -5418.2155784511 -1.93E-01
   265 Broy./Diag. 0.40E+00    1.5     0.03816064     -5418.2143168979  1.26E-03
   266 Broy./Diag. 0.40E+00    1.5     0.03239102     -5417.2473844992  9.67E-01
   267 Broy./Diag. 0.40E+00    1.5     0.04217195     -5417.3476997859 -1.00E-01
   268 Broy./Diag. 0.40E+00    1.5     0.05499326     -5417.5895249342 -2.42E-01
   269 Broy./Diag. 0.40E+00    1.5     0.05314130     -5418.0215712370 -4.32E-01
   270 Broy./Diag. 0.40E+00    1.5     0.06127498     -5418.4865999046 -4.65E-01
   271 Broy./Diag. 0.40E+00    1.5     0.06025373     -5417.8494403128  6.37E-01
   272 Broy./Diag. 0.40E+00    1.5     0.04560561     -5417.3598752588  4.90E-01
   273 Broy./Diag. 0.40E+00    1.5     0.05201341     -5417.2303767842  1.29E-01
   274 Broy./Diag. 0.40E+00    1.5     0.06007843     -5417.8620734913 -6.32E-01
   275 Broy./Diag. 0.40E+00    1.5     0.04930819     -5418.4365308477 -5.74E-01
   276 Broy./Diag. 0.40E+00    1.5     0.05369475     -5418.2547637627  1.82E-01
   277 Broy./Diag. 0.40E+00    1.5     0.04705308     -5417.3205613049  9.34E-01
   278 Broy./Diag. 0.40E+00    1.5     0.05868268     -5417.4916153992 -1.71E-01
   279 Broy./Diag. 0.40E+00    1.5     0.07350809     -5417.2365860826  2.55E-01
   280 Broy./Diag. 0.40E+00    1.5     0.09039169     -5417.7060947741 -4.70E-01
   281 Broy./Diag. 0.40E+00    1.5     0.05807274     -5418.8916712721 -1.19E+00
   282 Broy./Diag. 0.40E+00    1.5     0.07202888     -5417.9639677275  9.28E-01
   283 Broy./Diag. 0.40E+00    1.5     0.06291423     -5417.5194554708  4.45E-01
   284 Broy./Diag. 0.40E+00    1.5     0.07465536     -5417.0693637605  4.50E-01
   285 Broy./Diag. 0.40E+00    1.5     0.09582451     -5417.5387961267 -4.69E-01
   286 Broy./Diag. 0.40E+00    1.5     0.07264130     -5418.3985053433 -8.60E-01
   287 Broy./Diag. 0.40E+00    1.5     0.07912450     -5418.8772603959 -4.79E-01
   288 Broy./Diag. 0.40E+00    1.5     0.09132973     -5417.6570228366  1.22E+00
   289 Broy./Diag. 0.40E+00    1.5     0.09749201     -5416.9864912823  6.71E-01
   290 Broy./Diag. 0.40E+00    1.5     0.08913386     -5417.1424876612 -1.56E-01
   291 Broy./Diag. 0.40E+00    1.5     0.10458035     -5417.6288925119 -4.86E-01
   292 Broy./Diag. 0.40E+00    1.5     0.07605019     -5418.4974838126 -8.69E-01
   293 Broy./Diag. 0.40E+00    1.5     0.11146686     -5418.4796622092  1.78E-02
   294 Broy./Diag. 0.40E+00    1.5     0.12103924     -5417.6002250445  8.79E-01
   295 Broy./Diag. 0.40E+00    1.5     0.11701120     -5417.1891724510  4.11E-01
   296 Broy./Diag. 0.40E+00    1.5     0.08535167     -5417.2843809773 -9.52E-02
   297 Broy./Diag. 0.40E+00    1.5     0.08468812     -5417.9137578977 -6.29E-01
   298 Broy./Diag. 0.40E+00    1.5     0.05610863     -5418.5623320010 -6.49E-01
   299 Broy./Diag. 0.40E+00    1.5     0.08145768     -5418.1211641645  4.41E-01
   300 Broy./Diag. 0.40E+00    1.5     0.12073592     -5417.5743923560  5.47E-01
   301 Broy./Diag. 0.40E+00    1.5     0.09414416     -5417.2393986563  3.35E-01
   302 Broy./Diag. 0.40E+00    1.5     0.10844287     -5417.2318602810  7.54E-03
   303 Broy./Diag. 0.40E+00    1.5     0.10959893     -5417.9199298644 -6.88E-01
   304 Broy./Diag. 0.40E+00    1.5     0.07848397     -5419.4406988020 -1.52E+00
   305 Broy./Diag. 0.40E+00    1.5     0.08011218     -5417.4417839712  2.00E+00
   306 Broy./Diag. 0.40E+00    1.5     0.07045196     -5416.9726480648  4.69E-01
   307 Broy./Diag. 0.40E+00    1.5     0.08407666     -5416.7470325913  2.26E-01
   308 Broy./Diag. 0.40E+00    1.5     0.08774089     -5418.0759835579 -1.33E+00
   309 Broy./Diag. 0.40E+00    1.5     0.05560524     -5419.0646277754 -9.89E-01
   310 Broy./Diag. 0.40E+00    1.5     0.08821251     -5418.2206040336  8.44E-01
   311 Broy./Diag. 0.40E+00    1.5     0.08956330     -5417.4083754101  8.12E-01
   312 Broy./Diag. 0.40E+00    1.5     0.09686496     -5417.0295267832  3.79E-01
   313 Broy./Diag. 0.40E+00    1.5     0.13977601     -5417.0716883422 -4.22E-02
   314 Broy./Diag. 0.40E+00    1.5     0.16980223     -5417.5954404091 -5.24E-01
   315 Broy./Diag. 0.40E+00    1.5     0.09122298     -5418.8717949518 -1.28E+00
   316 Broy./Diag. 0.40E+00    1.5     0.09405622     -5418.1011657115  7.71E-01
   317 Broy./Diag. 0.40E+00    1.5     0.09680180     -5417.5744126242  5.27E-01
   318 Broy./Diag. 0.40E+00    1.5     0.05832581     -5417.1811349291  3.93E-01
   319 Broy./Diag. 0.40E+00    1.5     0.07728760     -5417.5118026268 -3.31E-01
   320 Broy./Diag. 0.40E+00    1.5     0.09737409     -5417.7677683026 -2.56E-01
   321 Broy./Diag. 0.40E+00    1.5     0.09550615     -5418.2512982194 -4.84E-01
   322 Broy./Diag. 0.40E+00    1.5     0.11795945     -5417.9527556277  2.99E-01
   323 Broy./Diag. 0.40E+00    1.5     0.10143262     -5417.8667409390  8.60E-02
   324 Broy./Diag. 0.40E+00    1.5     0.12210653     -5417.3186981752  5.48E-01
   325 Broy./Diag. 0.40E+00    1.5     0.14483720     -5417.5143107789 -1.96E-01
   326 Broy./Diag. 0.40E+00    1.5     0.09957486     -5418.0560115051 -5.42E-01
   327 Broy./Diag. 0.40E+00    1.5     0.09670840     -5417.5311175231  5.25E-01
   328 Broy./Diag. 0.40E+00    1.5     0.09569973     -5418.0620469213 -5.31E-01
   329 Broy./Diag. 0.40E+00    1.5     0.10879629     -5418.6489027872 -5.87E-01
   330 Broy./Diag. 0.40E+00    1.5     0.08349254     -5416.7384496086  1.91E+00
   331 Broy./Diag. 0.40E+00    1.5     0.09426481     -5418.0519601143 -1.31E+00
   332 Broy./Diag. 0.40E+00    1.5     0.12829241     -5417.5845708770  4.67E-01
   333 Broy./Diag. 0.40E+00    1.5     0.13360039     -5417.9651134791 -3.81E-01
   334 Broy./Diag. 0.40E+00    1.5     0.13850547     -5417.8531487266  1.12E-01
   335 Broy./Diag. 0.40E+00    1.5     0.10716091     -5417.8068831430  4.63E-02
   336 Broy./Diag. 0.40E+00    1.5     0.15745656     -5417.7759200746  3.10E-02
   337 Broy./Diag. 0.40E+00    1.5     0.18310590     -5417.2206135567  5.55E-01
   338 Broy./Diag. 0.40E+00    1.5     0.12585573     -5417.8505822845 -6.30E-01
   339 Broy./Diag. 0.40E+00    1.5     0.12860604     -5418.1675423338 -3.17E-01
   340 Broy./Diag. 0.40E+00    1.5     0.08830670     -5417.5280058453  6.40E-01
   341 Broy./Diag. 0.40E+00    1.5     0.12488368     -5417.8781881745 -3.50E-01
   342 Broy./Diag. 0.40E+00    1.5     0.09911950     -5417.6527347199  2.25E-01
   343 Broy./Diag. 0.40E+00    1.5     0.13666436     -5417.7082333818 -5.55E-02
   344 Broy./Diag. 0.40E+00    1.5     0.10108263     -5417.9959310130 -2.88E-01
   345 Broy./Diag. 0.40E+00    1.5     0.11098221     -5417.6681312276  3.28E-01
   346 Broy./Diag. 0.40E+00    1.5     0.12294483     -5417.8542040519 -1.86E-01
   347 Broy./Diag. 0.40E+00    1.5     0.14215305     -5417.6708818484  1.83E-01
   348 Broy./Diag. 0.40E+00    1.5     0.11502464     -5417.8196899418 -1.49E-01
   349 Broy./Diag. 0.40E+00    1.5     0.12385658     -5417.5803772203  2.39E-01
   350 Broy./Diag. 0.40E+00    1.5     0.08376035     -5418.2693337487 -6.89E-01
   351 Broy./Diag. 0.40E+00    1.5     0.10571267     -5417.1869549832  1.08E+00
   352 Broy./Diag. 0.40E+00    1.5     0.08942998     -5418.4420155547 -1.26E+00
   353 Broy./Diag. 0.40E+00    1.5     0.09695576     -5417.2918370525  1.15E+00
   354 Broy./Diag. 0.40E+00    1.5     0.14823685     -5418.1165708648 -8.25E-01
   355 Broy./Diag. 0.40E+00    1.5     0.15573402     -5417.5246508738  5.92E-01
   356 Broy./Diag. 0.40E+00    1.5     0.08493279     -5417.6678436571 -1.43E-01
   357 Broy./Diag. 0.40E+00    1.5     0.09978093     -5417.9709012690 -3.03E-01
   358 Broy./Diag. 0.40E+00    1.5     0.08575345     -5417.7582224831  2.13E-01
   359 Broy./Diag. 0.40E+00    1.5     0.07753280     -5417.7441087235  1.41E-02
   360 Broy./Diag. 0.40E+00    1.5     0.08885884     -5417.8663008979 -1.22E-01
   361 Broy./Diag. 0.40E+00    1.5     0.11743496     -5417.2429661177  6.23E-01
   362 Broy./Diag. 0.40E+00    1.5     0.13553648     -5418.2633769194 -1.02E+00
   363 Broy./Diag. 0.40E+00    1.5     0.12095432     -5417.9335703530  3.30E-01
   364 Broy./Diag. 0.40E+00    1.5     0.15875467     -5416.9901970068  9.43E-01
   365 Broy./Diag. 0.40E+00    1.5     0.18187250     -5418.3771047040 -1.39E+00
   366 Broy./Diag. 0.40E+00    1.5     0.21410790     -5417.3511073765  1.03E+00
   367 Broy./Diag. 0.40E+00    1.5     0.15087062     -5417.6833332358 -3.32E-01
   368 Broy./Diag. 0.40E+00    1.5     0.14146133     -5418.1698286793 -4.86E-01
   369 Broy./Diag. 0.40E+00    1.5     0.10722130     -5417.6982808345  4.72E-01
   370 Broy./Diag. 0.40E+00    1.5     0.11439539     -5417.8995745197 -2.01E-01
   371 Broy./Diag. 0.40E+00    1.5     0.11179554     -5417.2514082461  6.48E-01
   372 Broy./Diag. 0.40E+00    1.5     0.14554851     -5418.3344506780 -1.08E+00
   373 Broy./Diag. 0.40E+00    1.5     0.16632278     -5417.5375638368  7.97E-01
   374 Broy./Diag. 0.40E+00    1.5     0.07917323     -5417.5274078506  1.02E-02
   375 Broy./Diag. 0.40E+00    1.5     0.09767781     -5417.8891862031 -3.62E-01
   376 Broy./Diag. 0.40E+00    1.5     0.13082871     -5418.1198169465 -2.31E-01
   377 Broy./Diag. 0.40E+00    1.5     0.12340573     -5417.2572209721  8.63E-01
   378 Broy./Diag. 0.40E+00    1.5     0.11264087     -5418.2589588688 -1.00E+00
   379 Broy./Diag. 0.40E+00    1.5     0.17173832     -5417.6569051716  6.02E-01
   380 Broy./Diag. 0.40E+00    1.5     0.15266314     -5417.5168401540  1.40E-01
   381 Broy./Diag. 0.40E+00    1.5     0.09997754     -5417.7892263975 -2.72E-01
   382 Broy./Diag. 0.40E+00    1.5     0.14226831     -5417.8719313406 -8.27E-02
