 DBCSR| CPU Multiplication driver                                           XSMM (U)
 DBCSR| Multrec recursion limit                                              512 (U)
 DBCSR| Multiplication stack size                                           1000 (D)
 DBCSR| Maximum elements for images                                    UNLIMITED (U)
 DBCSR| Multiplicative factor virtual images                                   1 (U)
 DBCSR| Use multiplication densification                                       T (D)
 DBCSR| Multiplication size stacks                                             3 (U)
 DBCSR| Use memory pool for CPU allocation                                     F (U)
 DBCSR| Number of 3D layers                                               SINGLE (U)
 DBCSR| Use MPI memory allocation                                              F (U)
 DBCSR| Use RMA algorithm                                                      F (U)
 DBCSR| Use Communication thread                                               T (U)
 DBCSR| Communication thread load                                             87 (D)
 DBCSR| MPI: My process id                                                     0
 DBCSR| MPI: Number of processes                                             128
 DBCSR| OMP: Current number of threads                                         1
 DBCSR| OMP: Max number of threads                                             1
 DBCSR| Split modifier for TAS multiplication algorithm                  1.0E+00 (U)


  **** **** ******  **  PROGRAM STARTED AT               2023-02-14 13:33:50.266
 ***** ** ***  *** **   PROGRAM STARTED ON                             nid005262
 **    ****   ******    PROGRAM STARTED BY                                cahart
 ***** **    ** ** **   PROGRAM PROCESS ID                                227072
  **** **  *******  **  PROGRAM STARTED IN /mnt/lustre/a2fs-work2/work/e05/e05/c
                                           ahart/postdoc/masters/ni/archer2/slab
                                           /optimise/temp/scf_5e-4_mos-1000_alph
                                           a-0.08_beta-1.5_spin-0.7-0.5_periodic
                                           -xyz/search/300

 CP2K| version string:                 CP2K version 2023.1 (Development Version)
 CP2K| source code revision number:                                  git:964cd58
 CP2K| cp2kflags: omp libint fftw3 libxc elpa parallel scalapack xsmm plumed2 mk
 CP2K|            l
 CP2K| is freely available from                            https://www.cp2k.org/
 CP2K| Program compiled at                          Mon 13 Feb 17:05:14 GMT 2023
 CP2K| Program compiled on                                                  ln01
 CP2K| Program compiled for                                              ARCHER2
 CP2K| Data directory path    /work/e05/e05/cahart/cp2k/cp2k-2023.1/cp2k-2023.1-
 CP2K| Input file name                                                  cp2k.inp

 GLOBAL| Force Environment number                                              1
 GLOBAL| Basis set file name                                        BASIS_MOLOPT
 GLOBAL| Potential file name                                      GTH_POTENTIALS
 GLOBAL| MM Potential file name                                     MM_POTENTIAL
 GLOBAL| Coordinate file name                                      __STD_INPUT__
 GLOBAL| Method name                                                        CP2K
 GLOBAL| Project name                                                    Ni_bulk
 GLOBAL| Run type                                                         ENERGY
 GLOBAL| FFT library                                                       FFTW3
 GLOBAL| Diagonalization library                                            ELPA
 GLOBAL| DGEMM library                                                      BLAS
 GLOBAL| Minimum number of eigenvectors for ELPA usage                        16
 GLOBAL| Orthonormality check for eigenvectors                          DISABLED
 GLOBAL| Matrix multiplication library                                 ScaLAPACK
 GLOBAL| All-to-all communication in single precision                          F
 GLOBAL| FFTs using library dependent lengths                                  F
 GLOBAL| Grid backend                                                       AUTO
 GLOBAL| Global print level                                               MEDIUM
 GLOBAL| MPI I/O enabled                                                       T
 GLOBAL| Total number of message passing processes                           128
 GLOBAL| Number of threads for this process                                    1
 GLOBAL| This output is from process                                           0
 GLOBAL| Stack size for threads created by OpenMP (OMP_STACKSIZE)        default
 GLOBAL| CPU model name                          AMD EPYC 7742 64-Core Processor
 GLOBAL| CPUID                                                              1002

 MEMORY| system memory details [Kb]
 MEMORY|                        rank 0           min           max       average
 MEMORY| MemTotal            263528084     263528084     263528084     263528084
 MEMORY| MemFree             238434804     238434300     238434804     238434555
 MEMORY| Buffers                 33924         33924         33924         33924
 MEMORY| Cached                 839856        839728        839904        839810
 MEMORY| Slab                  1650648       1650644       1650656       1650648
 MEMORY| SReclaimable           101844        101844        101844        101844
 MEMORY| MemLikelyFree       239410428     239409796     239410476     239410134


 *** Fundamental physical constants (SI units) ***

 *** Literature: B. J. Mohr and B. N. Taylor,
 ***             CODATA recommended values of the fundamental physical
 ***             constants: 2006, Web Version 5.1
 ***             http://physics.nist.gov/constants

 Speed of light in vacuum [m/s]                             2.99792458000000E+08
 Magnetic constant or permeability of vacuum [N/A**2]       1.25663706143592E-06
 Electric constant or permittivity of vacuum [F/m]          8.85418781762039E-12
 Planck constant (h) [J*s]                                  6.62606896000000E-34
 Planck constant (h-bar) [J*s]                              1.05457162825177E-34
 Elementary charge [C]                                      1.60217648700000E-19
 Electron mass [kg]                                         9.10938215000000E-31
 Electron g factor [ ]                                     -2.00231930436220E+00
 Proton mass [kg]                                           1.67262163700000E-27
 Fine-structure constant                                    7.29735253760000E-03
 Rydberg constant [1/m]                                     1.09737315685270E+07
 Avogadro constant [1/mol]                                  6.02214179000000E+23
 Boltzmann constant [J/K]                                   1.38065040000000E-23
 Atomic mass unit [kg]                                      1.66053878200000E-27
 Bohr radius [m]                                            5.29177208590000E-11

 *** Conversion factors ***

 [u] -> [a.u.]                                              1.82288848426455E+03
 [Angstrom] -> [Bohr] = [a.u.]                              1.88972613288564E+00
 [a.u.] = [Bohr] -> [Angstrom]                              5.29177208590000E-01
 [a.u.] -> [s]                                              2.41888432650478E-17
 [a.u.] -> [fs]                                             2.41888432650478E-02
 [a.u.] -> [J]                                              4.35974393937059E-18
 [a.u.] -> [N]                                              8.23872205491840E-08
 [a.u.] -> [K]                                              3.15774647902944E+05
 [a.u.] -> [kJ/mol]                                         2.62549961709828E+03
 [a.u.] -> [kcal/mol]                                       6.27509468713739E+02
 [a.u.] -> [Pa]                                             2.94210107994716E+13
 [a.u.] -> [bar]                                            2.94210107994716E+08
 [a.u.] -> [atm]                                            2.90362800883016E+08
 [a.u.] -> [eV]                                             2.72113838565563E+01
 [a.u.] -> [Hz]                                             6.57968392072181E+15
 [a.u.] -> [1/cm] (wave numbers)                            2.19474631370540E+05
 [a.u./Bohr**2] -> [1/cm]                                   5.14048714338585E+03
 

 CELL_TOP| Volume [angstrom^3]:                                       983.249569
 CELL_TOP| Vector a [angstrom     7.012     0.000     0.000   |a| =     7.011596
 CELL_TOP| Vector b [angstrom     0.000     7.012     0.000   |b| =     7.011596
 CELL_TOP| Vector c [angstrom     0.000     0.000    20.000   |c| =    20.000000
 CELL_TOP| Angle (b,c), alpha [degree]:                                90.000000
 CELL_TOP| Angle (a,c), beta  [degree]:                                90.000000
 CELL_TOP| Angle (a,b), gamma [degree]:                                90.000000
 CELL_TOP| Numerically orthorhombic:                                         YES
 CELL_TOP| Periodicity                                                       XYZ

 GENERATE|  Preliminary Number of Bonds generated:                             0
 GENERATE|  Achieved consistency in connectivity generation.

 CELL| Volume [angstrom^3]:                                           983.249569
 CELL| Vector a [angstrom]:       7.012     0.000     0.000   |a| =     7.011596
 CELL| Vector b [angstrom]:       0.000     7.012     0.000   |b| =     7.011596
 CELL| Vector c [angstrom]:       0.000     0.000    20.000   |c| =    20.000000
 CELL| Angle (b,c), alpha [degree]:                                    90.000000
 CELL| Angle (a,c), beta  [degree]:                                    90.000000
 CELL| Angle (a,b), gamma [degree]:                                    90.000000
 CELL| Numerically orthorhombic:                                             YES
 CELL| Periodicity                                                           XYZ

 CELL_REF| Volume [angstrom^3]:                                       983.249569
 CELL_REF| Vector a [angstrom     7.012     0.000     0.000   |a| =     7.011596
 CELL_REF| Vector b [angstrom     0.000     7.012     0.000   |b| =     7.011596
 CELL_REF| Vector c [angstrom     0.000     0.000    20.000   |c| =    20.000000
 CELL_REF| Angle (b,c), alpha [degree]:                                90.000000
 CELL_REF| Angle (a,c), beta  [degree]:                                90.000000
 CELL_REF| Angle (a,b), gamma [degree]:                                90.000000
 CELL_REF| Numerically orthorhombic:                                         YES
 CELL_REF| Periodicity                                                       XYZ

 *** WARNING in cryssym.F:165 :: Symmetry library SPGLIB not available ***


 *******************************************************************************
                                    Kpoints
 *******************************************************************************
 BRILLOUIN| K-point scheme                                        Monkhorst-Pack
 BRILLOUIN| K-Point grid                                             4    4    1
 BRILLOUIN| Accuracy in Symmetry determination                      0.100000E-05
 BRILLOUIN| K-Point point group symmetrization                               OFF
 BRILLOUIN| Wavefunction type                                            COMPLEX
 BRILLOUIN| List of Kpoints [2 Pi/Bohr]                                        8
 BRILLOUIN| Number           Weight            X              Y              Z
 BRILLOUIN|     1           0.12500       -0.37500       -0.37500        0.00000
 BRILLOUIN|     2           0.12500       -0.37500       -0.12500        0.00000
 BRILLOUIN|     3           0.12500       -0.37500        0.12500        0.00000
 BRILLOUIN|     4           0.12500       -0.37500        0.37500        0.00000
 BRILLOUIN|     5           0.12500       -0.12500       -0.37500        0.00000
 BRILLOUIN|     6           0.12500       -0.12500       -0.12500        0.00000
 BRILLOUIN|     7           0.12500       -0.12500        0.12500        0.00000
 BRILLOUIN|     8           0.12500       -0.12500        0.37500        0.00000
 *******************************************************************************

 *******************************************************************************
 *******************************************************************************
 **                                                                           **
 **     #####                         ##              ##                      **
 **    ##   ##            ##          ##              ##                      **
 **   ##     ##                       ##            ######                    **
 **   ##     ##  ##   ##  ##   #####  ##  ##   ####   ##    #####    #####    **
 **   ##     ##  ##   ##  ##  ##      ## ##   ##      ##   ##   ##  ##   ##   **
 **   ##  ## ##  ##   ##  ##  ##      ####     ###    ##   ######   ######    **
 **    ##  ###   ##   ##  ##  ##      ## ##      ##   ##   ##       ##        **
 **     #######   #####   ##   #####  ##  ##  ####    ##    #####   ##        **
 **           ##                                                    ##        **
 **                                                                           **
 **                                                ... make the atoms dance   **
 **                                                                           **
 **            Copyright (C) by CP2K developers group (2000-2023)             **
 **                      J. Chem. Phys. 152, 194103 (2020)                    **
 **                                                                           **
 *******************************************************************************

 *** WARNING in qs_environment.F:1456 :: Number of electrons will be ***
 *** overwritten by NELEC_ALPHA and NELEC_BETA, multiplicity will be ***
 *** ignored.                                                        ***

 Number of electrons should be                                               576
 Sum of NELEC_ALPHA and NELEC_BETA is                                    576.000

 *** WARNING in qs_environment.F:1488 :: NELEC_ALPHA is not an integer, ***
 *** many features will not be supported.                               ***


 *** WARNING in qs_environment.F:1500 :: NELEC_BETA is not an integer, ***
 *** many features will not be supported.                              ***


 *** WARNING in qs_environment.F:1532 :: More ADDED_MOs requested for beta ***
 *** spin than available.                                                  ***


 *** WARNING in qs_environment.F:1548 :: More added MOs requested than     ***
 *** available. The full set of unoccupied MOs will be used. Use           ***
 *** 'ADDED_MOS -1' to always use all available MOs and to get rid of this ***
 *** warning.                                                              ***


 DFT| Spin unrestricted (spin-polarized) Kohn-Sham calculation               UKS
 DFT| Multiplicity                                                             1
 DFT| Number of spin states                                                    2
 DFT| Charge                                                                   0
 DFT| Self-interaction correction (SIC)                                       NO
 DFT| Cutoffs: density                                              1.000000E-10
 DFT|          gradient                                             1.000000E-10
 DFT|          tau                                                  1.000000E-10
 DFT|          cutoff_smoothing_range                               0.000000E+00
 DFT| XC density smoothing                                                  NONE
 DFT| XC derivatives                                                          PW

 FUNCTIONAL| PBE:
 FUNCTIONAL| J.P.Perdew, K.Burke, M.Ernzerhof, Phys. Rev. Letter, vol. 77, n 18,
 FUNCTIONAL|  pp. 3865-3868, (1996){spin polarized}                             

 vdW POTENTIAL|                                                   Pair Potential
 vdW POTENTIAL|          DFT-D3 (Version 3.1)
 vdW POTENTIAL|          Potential Form: S. Grimme et al, JCP 132: 154104 (2010)
 vdW POTENTIAL|          Zero Damping
 vdW POTENTIAL|          Cutoff Radius [Bohr]:                             20.00
 vdW POTENTIAL|          s6 Scaling Factor:                               1.0000
 vdW POTENTIAL|          sr6 Scaling Factor:                              1.2170
 vdW POTENTIAL|          s8 Scaling Factor:                               0.7220
 vdW POTENTIAL|          Cutoff for CN calculation:                   0.1000E-05

 QS| Method:                                                                 GPW
 QS| Density plane wave grid type                        NON-SPHERICAL FULLSPACE
 QS| Number of grid levels:                                                    5
 QS| Density cutoff [a.u.]:                                                300.0
 QS| Multi grid cutoff [a.u.]: 1) grid level                               300.0
 QS|                           2) grid level                               100.0
 QS|                           3) grid level                                33.3
 QS|                           4) grid level                                11.1
 QS|                           5) grid level                                 3.7
 QS| Grid level progression factor:                                          3.0
 QS| Relative density cutoff [a.u.]:                                        30.0
 QS| Interaction thresholds: eps_pgf_orb:                                1.0E-06
 QS|                         eps_filter_matrix:                          0.0E+00
 QS|                         eps_core_charge:                            1.0E-14
 QS|                         eps_rho_gspace:                             1.0E-12
 QS|                         eps_rho_rspace:                             1.0E-12
 QS|                         eps_gvg_rspace:                             1.0E-06
 QS|                         eps_ppl:                                    1.0E-02
 QS|                         eps_ppnl:                                   1.0E-08


 ATOMIC KIND INFORMATION

  1. Atomic kind: Ni_i                                  Number of atoms:      16

     Orbital Basis Set                                        DZVP-MOLOPT-SR-GTH

       Number of orbital shell sets:                                           1
       Number of orbital shells:                                               8
       Number of primitive Cartesian functions:                                6
       Number of Cartesian basis functions:                                   31
       Number of spherical basis functions:                                   26
       Norm type:                                                              2

       Normalised Cartesian orbitals:

                        Set   Shell   Orbital            Exponent    Coefficient

                          1       1    2s               10.077428      -0.684558
                                                         5.847736      -0.844524
                                                         2.494033       1.088856
                                                         0.988355       0.395503
                                                         0.344978       0.010224
                                                         0.099466      -0.003250

                          1       2    3s               10.077428       0.096747
                                                         5.847736       0.162504
                                                         2.494033      -0.297192
                                                         0.988355      -0.319752
                                                         0.344978       0.088318
                                                         0.099466       0.118587

                          1       3    4s               10.077428       0.036437
                                                         5.847736      -0.381480
                                                         2.494033       0.003759
                                                         0.988355      -1.048256
                                                         0.344978       0.855825
                                                         0.099466      -0.176350

                          1       4    3px              10.077428      -3.133913
                                                         5.847736       3.027656
                                                         2.494033       2.353227
                                                         0.988355       0.554184
                                                         0.344978       0.019462
                                                         0.099466      -0.000291
                          1       4    3py              10.077428      -3.133913
                                                         5.847736       3.027656
                                                         2.494033       2.353227
                                                         0.988355       0.554184
                                                         0.344978       0.019462
                                                         0.099466      -0.000291
                          1       4    3pz              10.077428      -3.133913
                                                         5.847736       3.027656
                                                         2.494033       2.353227
                                                         0.988355       0.554184
                                                         0.344978       0.019462
                                                         0.099466      -0.000291

                          1       5    4px              10.077428      -0.112729
                                                         5.847736      -0.114008
                                                         2.494033      -0.347303
                                                         0.988355      -0.110323
                                                         0.344978       0.154096
                                                         0.099466       0.058386
                          1       5    4py              10.077428      -0.112729
                                                         5.847736      -0.114008
                                                         2.494033      -0.347303
                                                         0.988355      -0.110323
                                                         0.344978       0.154096
                                                         0.099466       0.058386
                          1       5    4pz              10.077428      -0.112729
                                                         5.847736      -0.114008
                                                         2.494033      -0.347303
                                                         0.988355      -0.110323
                                                         0.344978       0.154096
                                                         0.099466       0.058386

                          1       6    4dx2             10.077428       8.232726
                                                         5.847736       9.105758
                                                         2.494033       2.849835
                                                         0.988355       0.554319
                                                         0.344978       0.067245
                                                         0.099466       0.001940
                          1       6    4dxy             10.077428      14.259500
                                                         5.847736      15.771636
                                                         2.494033       4.936060
                                                         0.988355       0.960109
                                                         0.344978       0.116472
                                                         0.099466       0.003360
                          1       6    4dxz             10.077428      14.259500
                                                         5.847736      15.771636
                                                         2.494033       4.936060
                                                         0.988355       0.960109
                                                         0.344978       0.116472
                                                         0.099466       0.003360
                          1       6    4dy2             10.077428       8.232726
                                                         5.847736       9.105758
                                                         2.494033       2.849835
                                                         0.988355       0.554319
                                                         0.344978       0.067245
                                                         0.099466       0.001940
                          1       6    4dyz             10.077428      14.259500
                                                         5.847736      15.771636
                                                         2.494033       4.936060
                                                         0.988355       0.960109
                                                         0.344978       0.116472
                                                         0.099466       0.003360
                          1       6    4dz2             10.077428       8.232726
                                                         5.847736       9.105758
                                                         2.494033       2.849835
                                                         0.988355       0.554319
                                                         0.344978       0.067245
                                                         0.099466       0.001940

                          1       7    5dx2             10.077428      -2.715373
                                                         5.847736      -4.020640
                                                         2.494033      -1.397569
                                                         0.988355      -0.076143
                                                         0.344978       0.033435
                                                         0.099466       0.026032
                          1       7    5dxy             10.077428      -4.703164
                                                         5.847736      -6.963952
                                                         2.494033      -2.420661
                                                         0.988355      -0.131883
                                                         0.344978       0.057911
                                                         0.099466       0.045088
                          1       7    5dxz             10.077428      -4.703164
                                                         5.847736      -6.963952
                                                         2.494033      -2.420661
                                                         0.988355      -0.131883
                                                         0.344978       0.057911
                                                         0.099466       0.045088
                          1       7    5dy2             10.077428      -2.715373
                                                         5.847736      -4.020640
                                                         2.494033      -1.397569
                                                         0.988355      -0.076143
                                                         0.344978       0.033435
                                                         0.099466       0.026032
                          1       7    5dyz             10.077428      -4.703164
                                                         5.847736      -6.963952
                                                         2.494033      -2.420661
                                                         0.988355      -0.131883
                                                         0.344978       0.057911
                                                         0.099466       0.045088
                          1       7    5dz2             10.077428      -2.715373
                                                         5.847736      -4.020640
                                                         2.494033      -1.397569
                                                         0.988355      -0.076143
                                                         0.344978       0.033435
                                                         0.099466       0.026032

                          1       8    5fx3             10.077428      -0.467694
                                                         5.847736       0.618100
                                                         2.494033       0.066069
                                                         0.988355       0.262898
                                                         0.344978       0.004720
                                                         0.099466       0.007748
                          1       8    5fx2y            10.077428      -1.045795
                                                         5.847736       1.382114
                                                         2.494033       0.147734
                                                         0.988355       0.587859
                                                         0.344978       0.010555
                                                         0.099466       0.017325
                          1       8    5fx2z            10.077428      -1.045795
                                                         5.847736       1.382114
                                                         2.494033       0.147734
                                                         0.988355       0.587859
                                                         0.344978       0.010555
                                                         0.099466       0.017325
                          1       8    5fxy2            10.077428      -1.045795
                                                         5.847736       1.382114
                                                         2.494033       0.147734
                                                         0.988355       0.587859
                                                         0.344978       0.010555
                                                         0.099466       0.017325
                          1       8    5fxyz            10.077428      -1.811371
                                                         5.847736       2.393892
                                                         2.494033       0.255883
                                                         0.988355       1.018201
                                                         0.344978       0.018282
                                                         0.099466       0.030008
                          1       8    5fxz2            10.077428      -1.045795
                                                         5.847736       1.382114
                                                         2.494033       0.147734
                                                         0.988355       0.587859
                                                         0.344978       0.010555
                                                         0.099466       0.017325
                          1       8    5fy3             10.077428      -0.467694
                                                         5.847736       0.618100
                                                         2.494033       0.066069
                                                         0.988355       0.262898
                                                         0.344978       0.004720
                                                         0.099466       0.007748
                          1       8    5fy2z            10.077428      -1.045795
                                                         5.847736       1.382114
                                                         2.494033       0.147734
                                                         0.988355       0.587859
                                                         0.344978       0.010555
                                                         0.099466       0.017325
                          1       8    5fyz2            10.077428      -1.045795
                                                         5.847736       1.382114
                                                         2.494033       0.147734
                                                         0.988355       0.587859
                                                         0.344978       0.010555
                                                         0.099466       0.017325
                          1       8    5fz3             10.077428      -0.467694
                                                         5.847736       0.618100
                                                         2.494033       0.066069
                                                         0.988355       0.262898
                                                         0.344978       0.004720
                                                         0.099466       0.007748

       Atomic covalent radius [Angstrom]:                                  1.150

       Atomic van der Waals radius [Angstrom]:                             1.630

     GTH Potential information for                                   GTH-PBE-q18

       Description:                       Goedecker-Teter-Hutter pseudopotential
                                           Goedecker et al., PRB 54, 1703 (1996)
                                          Hartwigsen et al., PRB 58, 3641 (1998)
                                                      Krack, TCA 114, 145 (2005)

       Gaussian exponent of the core charge distribution:               4.081633
       Electronic configuration (s p d ...):                           4   6   8

       Parameters of the local part of the GTH pseudopotential:

                          rloc        C1          C2          C3          C4
                        0.350000    2.102166    0.648484

       Parameters of the non-local part of the GTH pseudopotential:

                   l      r(l)      h(i,j,l)

                   0    0.261295    0.622658    9.970227
                                    9.970227  -12.871507
                   1    0.224253  -11.142708   12.429566
                                   12.429566  -14.706861
                   2    0.215348  -12.628146

  2. Atomic kind: Ni_b                                  Number of atoms:      16

     Orbital Basis Set                                        DZVP-MOLOPT-SR-GTH

       Number of orbital shell sets:                                           1
       Number of orbital shells:                                               8
       Number of primitive Cartesian functions:                                6
       Number of Cartesian basis functions:                                   31
       Number of spherical basis functions:                                   26
       Norm type:                                                              2

       Normalised Cartesian orbitals:

                        Set   Shell   Orbital            Exponent    Coefficient

                          1       1    2s               10.077428      -0.684558
                                                         5.847736      -0.844524
                                                         2.494033       1.088856
                                                         0.988355       0.395503
                                                         0.344978       0.010224
                                                         0.099466      -0.003250

                          1       2    3s               10.077428       0.096747
                                                         5.847736       0.162504
                                                         2.494033      -0.297192
                                                         0.988355      -0.319752
                                                         0.344978       0.088318
                                                         0.099466       0.118587

                          1       3    4s               10.077428       0.036437
                                                         5.847736      -0.381480
                                                         2.494033       0.003759
                                                         0.988355      -1.048256
                                                         0.344978       0.855825
                                                         0.099466      -0.176350

                          1       4    3px              10.077428      -3.133913
                                                         5.847736       3.027656
                                                         2.494033       2.353227
                                                         0.988355       0.554184
                                                         0.344978       0.019462
                                                         0.099466      -0.000291
                          1       4    3py              10.077428      -3.133913
                                                         5.847736       3.027656
                                                         2.494033       2.353227
                                                         0.988355       0.554184
                                                         0.344978       0.019462
                                                         0.099466      -0.000291
                          1       4    3pz              10.077428      -3.133913
                                                         5.847736       3.027656
                                                         2.494033       2.353227
                                                         0.988355       0.554184
                                                         0.344978       0.019462
                                                         0.099466      -0.000291

                          1       5    4px              10.077428      -0.112729
                                                         5.847736      -0.114008
                                                         2.494033      -0.347303
                                                         0.988355      -0.110323
                                                         0.344978       0.154096
                                                         0.099466       0.058386
                          1       5    4py              10.077428      -0.112729
                                                         5.847736      -0.114008
                                                         2.494033      -0.347303
                                                         0.988355      -0.110323
                                                         0.344978       0.154096
                                                         0.099466       0.058386
                          1       5    4pz              10.077428      -0.112729
                                                         5.847736      -0.114008
                                                         2.494033      -0.347303
                                                         0.988355      -0.110323
                                                         0.344978       0.154096
                                                         0.099466       0.058386

                          1       6    4dx2             10.077428       8.232726
                                                         5.847736       9.105758
                                                         2.494033       2.849835
                                                         0.988355       0.554319
                                                         0.344978       0.067245
                                                         0.099466       0.001940
                          1       6    4dxy             10.077428      14.259500
                                                         5.847736      15.771636
                                                         2.494033       4.936060
                                                         0.988355       0.960109
                                                         0.344978       0.116472
                                                         0.099466       0.003360
                          1       6    4dxz             10.077428      14.259500
                                                         5.847736      15.771636
                                                         2.494033       4.936060
                                                         0.988355       0.960109
                                                         0.344978       0.116472
                                                         0.099466       0.003360
                          1       6    4dy2             10.077428       8.232726
                                                         5.847736       9.105758
                                                         2.494033       2.849835
                                                         0.988355       0.554319
                                                         0.344978       0.067245
                                                         0.099466       0.001940
                          1       6    4dyz             10.077428      14.259500
                                                         5.847736      15.771636
                                                         2.494033       4.936060
                                                         0.988355       0.960109
                                                         0.344978       0.116472
                                                         0.099466       0.003360
                          1       6    4dz2             10.077428       8.232726
                                                         5.847736       9.105758
                                                         2.494033       2.849835
                                                         0.988355       0.554319
                                                         0.344978       0.067245
                                                         0.099466       0.001940

                          1       7    5dx2             10.077428      -2.715373
                                                         5.847736      -4.020640
                                                         2.494033      -1.397569
                                                         0.988355      -0.076143
                                                         0.344978       0.033435
                                                         0.099466       0.026032
                          1       7    5dxy             10.077428      -4.703164
                                                         5.847736      -6.963952
                                                         2.494033      -2.420661
                                                         0.988355      -0.131883
                                                         0.344978       0.057911
                                                         0.099466       0.045088
                          1       7    5dxz             10.077428      -4.703164
                                                         5.847736      -6.963952
                                                         2.494033      -2.420661
                                                         0.988355      -0.131883
                                                         0.344978       0.057911
                                                         0.099466       0.045088
                          1       7    5dy2             10.077428      -2.715373
                                                         5.847736      -4.020640
                                                         2.494033      -1.397569
                                                         0.988355      -0.076143
                                                         0.344978       0.033435
                                                         0.099466       0.026032
                          1       7    5dyz             10.077428      -4.703164
                                                         5.847736      -6.963952
                                                         2.494033      -2.420661
                                                         0.988355      -0.131883
                                                         0.344978       0.057911
                                                         0.099466       0.045088
                          1       7    5dz2             10.077428      -2.715373
                                                         5.847736      -4.020640
                                                         2.494033      -1.397569
                                                         0.988355      -0.076143
                                                         0.344978       0.033435
                                                         0.099466       0.026032

                          1       8    5fx3             10.077428      -0.467694
                                                         5.847736       0.618100
                                                         2.494033       0.066069
                                                         0.988355       0.262898
                                                         0.344978       0.004720
                                                         0.099466       0.007748
                          1       8    5fx2y            10.077428      -1.045795
                                                         5.847736       1.382114
                                                         2.494033       0.147734
                                                         0.988355       0.587859
                                                         0.344978       0.010555
                                                         0.099466       0.017325
                          1       8    5fx2z            10.077428      -1.045795
                                                         5.847736       1.382114
                                                         2.494033       0.147734
                                                         0.988355       0.587859
                                                         0.344978       0.010555
                                                         0.099466       0.017325
                          1       8    5fxy2            10.077428      -1.045795
                                                         5.847736       1.382114
                                                         2.494033       0.147734
                                                         0.988355       0.587859
                                                         0.344978       0.010555
                                                         0.099466       0.017325
                          1       8    5fxyz            10.077428      -1.811371
                                                         5.847736       2.393892
                                                         2.494033       0.255883
                                                         0.988355       1.018201
                                                         0.344978       0.018282
                                                         0.099466       0.030008
                          1       8    5fxz2            10.077428      -1.045795
                                                         5.847736       1.382114
                                                         2.494033       0.147734
                                                         0.988355       0.587859
                                                         0.344978       0.010555
                                                         0.099466       0.017325
                          1       8    5fy3             10.077428      -0.467694
                                                         5.847736       0.618100
                                                         2.494033       0.066069
                                                         0.988355       0.262898
                                                         0.344978       0.004720
                                                         0.099466       0.007748
                          1       8    5fy2z            10.077428      -1.045795
                                                         5.847736       1.382114
                                                         2.494033       0.147734
                                                         0.988355       0.587859
                                                         0.344978       0.010555
                                                         0.099466       0.017325
                          1       8    5fyz2            10.077428      -1.045795
                                                         5.847736       1.382114
                                                         2.494033       0.147734
                                                         0.988355       0.587859
                                                         0.344978       0.010555
                                                         0.099466       0.017325
                          1       8    5fz3             10.077428      -0.467694
                                                         5.847736       0.618100
                                                         2.494033       0.066069
                                                         0.988355       0.262898
                                                         0.344978       0.004720
                                                         0.099466       0.007748

       Atomic covalent radius [Angstrom]:                                  1.150

       Atomic van der Waals radius [Angstrom]:                             1.630

     GTH Potential information for                                   GTH-PBE-q18

       Description:                       Goedecker-Teter-Hutter pseudopotential
                                           Goedecker et al., PRB 54, 1703 (1996)
                                          Hartwigsen et al., PRB 58, 3641 (1998)
                                                      Krack, TCA 114, 145 (2005)

       Gaussian exponent of the core charge distribution:               4.081633
       Electronic configuration (s p d ...):                           4   6   8

       Parameters of the local part of the GTH pseudopotential:

                          rloc        C1          C2          C3          C4
                        0.350000    2.102166    0.648484

       Parameters of the non-local part of the GTH pseudopotential:

                   l      r(l)      h(i,j,l)

                   0    0.261295    0.622658    9.970227
                                    9.970227  -12.871507
                   1    0.224253  -11.142708   12.429566
                                   12.429566  -14.706861
                   2    0.215348  -12.628146


 MOLECULE KIND INFORMATION


 All atoms are their own molecule, skipping detailed information


 TOTAL NUMBERS AND MAXIMUM NUMBERS

  Total number of            - Atomic kinds:                                   2
                             - Atoms:                                         32
                             - Shell sets:                                    32
                             - Shells:                                       256
                             - Primitive Cartesian functions:                192
                             - Cartesian basis functions:                    992
                             - Spherical basis functions:                    832

  Maximum angular momentum of- Orbital basis functions:                        3
                             - Local part of the GTH pseudopotential:          2
                             - Non-local part of the GTH pseudopotential:      3


 MODULE QUICKSTEP: ATOMIC COORDINATES IN ANGSTROM

   Atom Kind Element         X             Y             Z       Z(eff)     Mass
      1    1 Ni   28      0.876298      0.876298      7.370500  18.0000  58.6934
      2    1 Ni   28      0.876298      4.382298      7.370500  18.0000  58.6934
      3    1 Ni   28      2.629298      2.629298      7.370500  18.0000  58.6934
      4    1 Ni   28      2.629298      6.135298      7.370500  18.0000  58.6934
      5    1 Ni   28      4.382298      0.876298      7.370500  18.0000  58.6934
      6    1 Ni   28      4.382298      4.382298      7.370500  18.0000  58.6934
      7    1 Ni   28      6.135298      2.629298      7.370500  18.0000  58.6934
      8    1 Ni   28      6.135298      6.135298      7.370500  18.0000  58.6934
      9    2 Ni   28      0.876298      2.629298      9.123500  18.0000  58.6934
     10    2 Ni   28      0.876298      6.135298      9.123500  18.0000  58.6934
     11    2 Ni   28      2.629298      0.876298      9.123500  18.0000  58.6934
     12    2 Ni   28      2.629298      4.382298      9.123500  18.0000  58.6934
     13    2 Ni   28      4.382298      2.629298      9.123500  18.0000  58.6934
     14    2 Ni   28      4.382298      6.135298      9.123500  18.0000  58.6934
     15    2 Ni   28      6.135298      0.876298      9.123500  18.0000  58.6934
     16    2 Ni   28      6.135298      4.382298      9.123500  18.0000  58.6934
     17    2 Ni   28      0.876298      0.876298     10.876500  18.0000  58.6934
     18    2 Ni   28      0.876298      4.382298     10.876500  18.0000  58.6934
     19    2 Ni   28      2.629298      2.629298     10.876500  18.0000  58.6934
     20    2 Ni   28      2.629298      6.135298     10.876500  18.0000  58.6934
     21    2 Ni   28      4.382298      0.876298     10.876500  18.0000  58.6934
     22    2 Ni   28      4.382298      4.382298     10.876500  18.0000  58.6934
     23    2 Ni   28      6.135298      2.629298     10.876500  18.0000  58.6934
     24    2 Ni   28      6.135298      6.135298     10.876500  18.0000  58.6934
     25    1 Ni   28      0.876298      2.629298     12.629500  18.0000  58.6934
     26    1 Ni   28      0.876298      6.135298     12.629500  18.0000  58.6934
     27    1 Ni   28      2.629298      0.876298     12.629500  18.0000  58.6934
     28    1 Ni   28      2.629298      4.382298     12.629500  18.0000  58.6934
     29    1 Ni   28      4.382298      2.629298     12.629500  18.0000  58.6934
     30    1 Ni   28      4.382298      6.135298     12.629500  18.0000  58.6934
     31    1 Ni   28      6.135298      0.876298     12.629500  18.0000  58.6934
     32    1 Ni   28      6.135298      4.382298     12.629500  18.0000  58.6934



 SCF PARAMETERS         Density guess:                                    ATOMIC
                        --------------------------------------------------------
                        max_scf:                                             500
                        max_scf_history:                                       0
                        max_diis:                                              4
                        --------------------------------------------------------
                        eps_scf:                                        5.00E-04
                        eps_scf_history:                                0.00E+00
                        eps_diis:                                       1.00E-01
                        eps_eigval:                                     1.00E-05
                        --------------------------------------------------------
                        level_shift [a.u.]:                             0.000000
                        added MOs                                       534  553
                        --------------------------------------------------------
                        Mixing method:                            BROYDEN_MIXING
                                                charge density mixing in g-space
                        --------------------------------------------------------
                        Smear method:                                FERMI_DIRAC
                        Electronic temperature [K]:                        300.0
                        Electronic temperature [a.u.]:                  9.50E-04
                        Accuracy threshold:                             1.00E-10
                        --------------------------------------------------------
                        No outer SCF

 PW_GRID| Information for grid number                                          1
 PW_GRID| Grid distributed over                                   128 processors
 PW_GRID| Real space group dimensions                                     8   16
 PW_GRID| the grid is blocked:                                               YES
 PW_GRID| Cutoff [a.u.]                                                    300.0
 PW_GRID| spherical cutoff:                                                   NO
 PW_GRID|   Bounds   1            -54      53                Points:         108
 PW_GRID|   Bounds   2            -54      53                Points:         108
 PW_GRID|   Bounds   3           -150     149                Points:         300
 PW_GRID| Volume element (a.u.^3)  0.1896E-02     Volume (a.u.^3)      6635.2971
 PW_GRID| Grid span                                                    FULLSPACE
 PW_GRID|   Distribution                         Average         Max         Min
 PW_GRID|   G-Vectors                            27337.5       28728       25272
 PW_GRID|   G-Rays                                 253.1         266         234
 PW_GRID|   Real Space Points                    27337.5       28728       25272

 PW_GRID| Information for grid number                                          2
 PW_GRID| Number of the reference grid                                         1
 PW_GRID| Grid distributed over                                   128 processors
 PW_GRID| Real space group dimensions                                     8   16
 PW_GRID| the grid is blocked:                                                NO
 PW_GRID| Cutoff [a.u.]                                                    100.0
 PW_GRID| spherical cutoff:                                                   NO
 PW_GRID|   Bounds   1            -30      29                Points:          60
 PW_GRID|   Bounds   2            -30      29                Points:          60
 PW_GRID|   Bounds   3            -90      89                Points:         180
 PW_GRID| Volume element (a.u.^3)  0.1024E-01     Volume (a.u.^3)      6635.2971
 PW_GRID| Grid span                                                    FULLSPACE
 PW_GRID|   Distribution                         Average         Max         Min
 PW_GRID|   G-Vectors                             5062.5       15960           0
 PW_GRID|   G-Rays                                  84.4         266           0
 PW_GRID|   Real Space Points                     5062.5        5760        3780

 PW_GRID| Information for grid number                                          3
 PW_GRID| Number of the reference grid                                         1
 PW_GRID| Grid distributed over                                   128 processors
 PW_GRID| Real space group dimensions                                     8   16
 PW_GRID| the grid is blocked:                                                NO
 PW_GRID| Cutoff [a.u.]                                                     33.3
 PW_GRID| spherical cutoff:                                                   NO
 PW_GRID|   Bounds   1            -18      17                Points:          36
 PW_GRID|   Bounds   2            -18      17                Points:          36
 PW_GRID|   Bounds   3            -50      49                Points:         100
 PW_GRID| Volume element (a.u.^3)  0.5120E-01     Volume (a.u.^3)      6635.2971
 PW_GRID| Grid span                                                    FULLSPACE
 PW_GRID|   Distribution                         Average         Max         Min
 PW_GRID|   G-Vectors                             1012.5        9576           0
 PW_GRID|   G-Rays                                  28.1         266           0
 PW_GRID|   Real Space Points                     1012.5        1500         800

 PW_GRID| Information for grid number                                          4
 PW_GRID| Number of the reference grid                                         1
 PW_GRID| Grid distributed over                                   128 processors
 PW_GRID| Real space group dimensions                                     8   16
 PW_GRID| the grid is blocked:                                                NO
 PW_GRID| Cutoff [a.u.]                                                     11.1
 PW_GRID| spherical cutoff:                                                   NO
 PW_GRID|   Bounds   1            -10       9                Points:          20
 PW_GRID|   Bounds   2            -10       9                Points:          20
 PW_GRID|   Bounds   3            -30      29                Points:          60
 PW_GRID| Volume element (a.u.^3)  0.2765         Volume (a.u.^3)      6635.2971
 PW_GRID| Grid span                                                    FULLSPACE
 PW_GRID|   Distribution                         Average         Max         Min
 PW_GRID|   G-Vectors                              187.5        3800           0
 PW_GRID|   G-Rays                                   9.4         190           0
 PW_GRID|   Real Space Points                      187.5         360         120

 PW_GRID| Information for grid number                                          5
 PW_GRID| Number of the reference grid                                         1
 PW_GRID| Grid distributed over                                   128 processors
 PW_GRID| Real space group dimensions                                     8   16
 PW_GRID| the grid is blocked:                                                NO
 PW_GRID| Cutoff [a.u.]                                                      3.7
 PW_GRID| spherical cutoff:                                                   NO
 PW_GRID|   Bounds   1             -6       5                Points:          12
 PW_GRID|   Bounds   2             -6       5                Points:          12
 PW_GRID|   Bounds   3            -18      17                Points:          36
 PW_GRID| Volume element (a.u.^3)   1.280         Volume (a.u.^3)      6635.2971
 PW_GRID| Grid span                                                    FULLSPACE
 PW_GRID|   Distribution                         Average         Max         Min
 PW_GRID|   G-Vectors                               40.5        1296           0
 PW_GRID|   G-Rays                                   3.4         108           0
 PW_GRID|   Real Space Points                       40.5          72           0

 POISSON| Solver                                                        PERIODIC
 POISSON| Periodicity                                                        XYZ

 RS_GRID| Information for grid number                                          1
 RS_GRID|   Bounds   1            -54      53                Points:         108
 RS_GRID|   Bounds   2            -54      53                Points:         108
 RS_GRID|   Bounds   3           -150     149                Points:         300
 RS_GRID| Real space distribution over                                  8 groups
 RS_GRID| Real space distribution along direction                              2
 RS_GRID| Border size                                                         28
 RS_GRID| Real space distribution over                                 16 groups
 RS_GRID| Real space distribution along direction                              3
 RS_GRID| Border size                                                         28
 RS_GRID|   Distribution                         Average         Max         Min
 RS_GRID|   Planes                                  69.5          70          69
 RS_GRID|   Distribution                         Average         Max         Min
 RS_GRID|   Planes                                  74.8          75          74

 RS_GRID| Information for grid number                                          2
 RS_GRID|   Bounds   1            -30      29                Points:          60
 RS_GRID|   Bounds   2            -30      29                Points:          60
 RS_GRID|   Bounds   3            -90      89                Points:         180
 RS_GRID| Real space fully replicated
 RS_GRID| Group size                                                           1

 RS_GRID| Information for grid number                                          3
 RS_GRID|   Bounds   1            -18      17                Points:          36
 RS_GRID|   Bounds   2            -18      17                Points:          36
 RS_GRID|   Bounds   3            -50      49                Points:         100
 RS_GRID| Real space fully replicated
 RS_GRID| Group size                                                           1

 RS_GRID| Information for grid number                                          4
 RS_GRID|   Bounds   1            -10       9                Points:          20
 RS_GRID|   Bounds   2            -10       9                Points:          20
 RS_GRID|   Bounds   3            -30      29                Points:          60
 RS_GRID| Real space fully replicated
 RS_GRID| Group size                                                           1

 RS_GRID| Information for grid number                                          5
 RS_GRID|   Bounds   1             -6       5                Points:          12
 RS_GRID|   Bounds   2             -6       5                Points:          12
 RS_GRID|   Bounds   3            -18      17                Points:          36
 RS_GRID| Real space fully replicated
 RS_GRID| Group size                                                           1

 Spin 1

 Number of electrons:                                                        297.600
 Number of occupied orbitals:                                                298
 Number of molecular orbitals:                                               832

 Spin 2

 Number of electrons:                                                        278.400
 Number of occupied orbitals:                                                279
 Number of molecular orbitals:                                               832

 Number of orbital functions:                                                832
 Number of independent orbital functions:                                    832

 Extrapolation method: initial_guess

 Atomic guess: The first density matrix is obtained in terms of atomic orbitals
               and electronic configurations assigned to each atomic kind

 Guess for atomic kind: Ni_i

 Electronic structure
    Total number of core electrons                                         10.00
    Total number of valence electrons                                      18.00
    Total number of electrons                                              28.00
    Multiplicity                                                         doublet
    Alpha Electrons
    S   [  1.00  1.00] 1.00  1.00
    P   [  3.00] 3.00
    D      4.35
    Beta Electrons
    S   [  1.00  1.00] 1.00  1.00
    P   [  3.00] 3.00
    D      3.65


 *******************************************************************************
                  Iteration          Convergence                     Energy [au]
 *******************************************************************************
                          1         1.51729                    -167.067424631347
                          2         15.3902                    -156.642654318634
                          3         2.33433                    -168.319355313541
                          4        0.206730                    -168.609905008081
                          5        0.814175E-01                -168.612873080494
                          6        0.173318E-01                -168.613470181066
                          7        0.290432E-02                -168.613543571401
                          8        0.311825E-02                -168.613543401474
                          9        0.179670E-03                -168.613544404477
                         10        0.169386E-02                -168.613544207811
                         11        0.473341E-03                -168.613544360253
                         12        0.165417E-03                -168.613544400419
                         13        0.162622E-03                -168.613544401489
                         14        0.158325E-03                -168.613544403900
                         15        0.177007E-03                -168.613544402509
                         16        0.138916E-03                -168.613544404900
                         17        0.934549E-04                -168.613544406149
                         18        0.119916E-03                -168.613544405789
                         19        0.131607E-03                -168.613544405591
                         20        0.169309E-03                -168.613544404773
                         21        0.551337E-04                -168.613544406656
                         22        0.382664E-04                -168.613544406759
                         23        0.378942E-04                -168.613544406765
                         24        0.381089E-04                -168.613544406765
                         25        0.390835E-04                -168.613544406759
                         26        0.308614E-04                -168.613544406841
                         27        0.205044E-04                -168.613544406892
                         28        0.200942E-04                -168.613544406893
                         29        0.199375E-04                -168.613544406893
                         30        0.200198E-04                -168.613544406894
                         31        0.161325E-04                -168.613544406903
                         32        0.330614E-05                -168.613544406925
                         33        0.238713E-05                -168.613544406926
                         34        0.265439E-05                -168.613544406926
                         35        0.277073E-05                -168.613544406926
                         36        0.335175E-05                -168.613544406926
                         37        0.148809E-05                -168.613544406927
                         38        0.133447E-05                -168.613544406927
                         39        0.918735E-06                -168.613544406927

 Energy components [Hartree]           Total Energy ::         -168.613544406927
                                        Band Energy ::          -26.569761966525
                                     Kinetic Energy ::           97.306723392622
                                   Potential Energy ::         -265.920267799548
                                      Virial (-V/T) ::            2.732804666812
                                        Core Energy ::         -299.567979157577
                                          XC Energy ::          -16.227189041387
                                     Coulomb Energy ::          147.181623792037
                       Total Pseudopotential Energy ::         -396.961043505191
                       Local Pseudopotential Energy ::         -362.648291121960
                    Nonlocal Pseudopotential Energy ::          -34.312752383230
                                        Confinement ::            0.863409549921

 Orbital energies  State     Spin  L     Occupation   Energy[a.u.]    Energy[eV]

                       1    alpha  0          1.000      -4.172666   -113.544030
                       2    alpha  0          1.000      -0.181431     -4.936983
                       1     beta  0          1.000      -4.140640   -112.672541
                       2     beta  0          1.000      -0.176372     -4.799339

                       1    alpha  1          3.000      -2.578739    -70.171064
                       1     beta  1          3.000      -2.547579    -69.323162

                       1    alpha  2          4.350      -0.327039     -8.899191
                       1     beta  2          3.650      -0.300569     -8.178887


 Total Electron Density at R=0:                                         0.030422

 Guess for atomic kind: Ni_b

 Electronic structure
    Total number of core electrons                                         10.00
    Total number of valence electrons                                      18.00
    Total number of electrons                                              28.00
    Multiplicity                                                         doublet
    Alpha Electrons
    S   [  1.00  1.00] 1.00  1.00
    P   [  3.00] 3.00
    D      4.25
    Beta Electrons
    S   [  1.00  1.00] 1.00  1.00
    P   [  3.00] 3.00
    D      3.75


 *******************************************************************************
                  Iteration          Convergence                     Energy [au]
 *******************************************************************************
                          1         1.51687                    -167.065012761055
                          2         14.9817                    -156.620431300845
                          3         2.25575                    -168.317311438693
                          4        0.189210                    -168.607926092750
                          5        0.708658E-01                -168.610773319290
                          6        0.122256E-01                -168.611238205502
                          7        0.598421E-02                -168.611272268995
                          8        0.528277E-02                -168.611272438110
                          9        0.104644E-02                -168.611275321653
                         10        0.260234E-02                -168.611274926630
                         11        0.975322E-03                -168.611275328217
                         12        0.161067E-03                -168.611275447773
                         13        0.147413E-03                -168.611275446839
                         14        0.115114E-03                -168.611275449434
                         15        0.167217E-03                -168.611275445436
                         16        0.255374E-04                -168.611275450531
                         17        0.418369E-04                -168.611275450414
                         18        0.393709E-04                -168.611275450477
                         19        0.239931E-04                -168.611275450542
                         20        0.173885E-04                -168.611275450557
                         21        0.851368E-05                -168.611275450578
                         22        0.849928E-05                -168.611275450580
                         23        0.544937E-05                -168.611275450584
                         24        0.540003E-05                -168.611275450586
                         25        0.613371E-05                -168.611275450584
                         26        0.311593E-06                -168.611275450588

 Energy components [Hartree]           Total Energy ::         -168.611275450588
                                        Band Energy ::          -26.568680144499
                                     Kinetic Energy ::           97.303659243130
                                   Potential Energy ::         -265.914934693718
                                      Virial (-V/T) ::            2.732835915546
                                        Core Energy ::         -299.566189183323
                                          XC Energy ::          -16.224592878785
                                     Coulomb Energy ::          147.179506611520
                       Total Pseudopotential Energy ::         -396.956189041778
                       Local Pseudopotential Energy ::         -362.645043136649
                    Nonlocal Pseudopotential Energy ::          -34.311145905129
                                        Confinement ::            0.863406153250

 Orbital energies  State     Spin  L     Occupation   Energy[a.u.]    Energy[eV]

                       1    alpha  0          1.000      -4.168335   -113.426177
                       2    alpha  0          1.000      -0.180730     -4.917906
                       1     beta  0          1.000      -4.145459   -112.803683
                       2     beta  0          1.000      -0.177117     -4.819606

                       1    alpha  1          3.000      -2.574525    -70.056390
                       1     beta  1          3.000      -2.552268    -69.450746

                       1    alpha  2          4.250      -0.323446     -8.801405
                       1     beta  2          3.750      -0.304537     -8.286881


 Total Electron Density at R=0:                                         0.030429

 Spin 1
 Re-scaling the density matrix to get the right number of electrons for spin 1
                  # Electrons              Trace(P)               Scaling factor
                        297.600             297.600                        1.000

 Spin 2
 Re-scaling the density matrix to get the right number of electrons for spin 2
                  # Electrons              Trace(P)               Scaling factor
                        278.400             278.400                        1.000


 SCF WAVEFUNCTION OPTIMIZATION

  Step     Update method      Time    Convergence         Total energy    Change
  ------------------------------------------------------------------------------
     1 NoMix/Diag. 0.80E-01    2.4     0.87378363     -5426.4441344177 -5.43E+03
     2 Broy./Diag. 0.80E-01    1.5     0.01500251     -5316.5517587310  1.10E+02
[...]
   116 Broy./Diag. 0.80E-01    1.5     0.01616293     -5417.6131385890  7.22E-02
   117 Broy./Diag. 0.80E-01    1.5     0.03188919     -5417.5282122891  8.49E-02
   118 Broy./Diag. 0.80E-01    1.5     0.01981743     -5417.3283721309  2.00E-01
   119 Broy./Diag. 0.80E-01    1.5     0.02678909     -5417.4024857564 -7.41E-02
   120 Broy./Diag. 0.80E-01    1.5     0.03170518     -5417.3115788955  9.09E-02
   121 Broy./Diag. 0.80E-01    1.5     0.06333128     -5417.7773270694 -4.66E-01
   122 Broy./Diag. 0.80E-01    1.5     0.04833861     -5417.6766034051  1.01E-01
   123 Broy./Diag. 0.80E-01    1.5     0.01401351     -5417.3331219471  3.43E-01
   124 Broy./Diag. 0.80E-01    1.5     0.00965810     -5417.2293275940  1.04E-01
   125 Broy./Diag. 0.80E-01    1.5     0.05953895     -5417.0898144611  1.40E-01
   126 Broy./Diag. 0.80E-01    1.5     0.00628863     -5417.1862902978 -9.65E-02
   127 Broy./Diag. 0.80E-01    1.5     0.02814679     -5417.4513325013 -2.65E-01
   128 Broy./Diag. 0.80E-01    1.5     0.02118333     -5417.3434186882  1.08E-01
   129 Broy./Diag. 0.80E-01    1.5     0.02637185     -5417.2479454609  9.55E-02
   130 Broy./Diag. 0.80E-01    1.5     0.00837044     -5417.4744184299 -2.26E-01
   131 Broy./Diag. 0.80E-01    1.5     0.02194371     -5417.3970152549  7.74E-02
   132 Broy./Diag. 0.80E-01    1.5     0.01410303     -5417.5905030092 -1.93E-01
   133 Broy./Diag. 0.80E-01    1.5     0.03895460     -5417.5348810144  5.56E-02
   134 Broy./Diag. 0.80E-01    1.5     0.06763584     -5417.2841473882  2.51E-01
   135 Broy./Diag. 0.80E-01    1.5     0.02050015     -5417.5438295645 -2.60E-01
   136 Broy./Diag. 0.80E-01    1.5     0.02194688     -5417.5610584660 -1.72E-02
   137 Broy./Diag. 0.80E-01    1.5     0.04455882     -5417.8823196800 -3.21E-01
   138 Broy./Diag. 0.80E-01    1.5     0.09722415     -5418.1166481892 -2.34E-01
   139 Broy./Diag. 0.80E-01    1.5     0.06491973     -5417.8010928074  3.16E-01
   140 Broy./Diag. 0.80E-01    1.5     0.01883657     -5417.2264657436  5.75E-01
   141 Broy./Diag. 0.80E-01    1.5     0.01778728     -5417.2716788414 -4.52E-02
   142 Broy./Diag. 0.80E-01    1.5     0.07394702     -5417.0826085546  1.89E-01
   143 Broy./Diag. 0.80E-01    1.5     0.01701058     -5418.0780429244 -9.95E-01
   144 Broy./Diag. 0.80E-01    1.5     0.01744440     -5418.3516665195 -2.74E-01
   145 Broy./Diag. 0.80E-01    1.5     0.01634122     -5418.9174455308 -5.66E-01
   146 Broy./Diag. 0.80E-01    1.5     0.00924291     -5418.3537518674  5.64E-01
   147 Broy./Diag. 0.80E-01    1.5     0.01155004     -5418.1109131887  2.43E-01
   148 Broy./Diag. 0.80E-01    1.5     0.02139525     -5418.1244542297 -1.35E-02
   149 Broy./Diag. 0.80E-01    1.5     0.01282059     -5418.0335101621  9.09E-02
   150 Broy./Diag. 0.80E-01    1.5     0.04883726     -5418.1513895490 -1.18E-01
   151 Broy./Diag. 0.80E-01    1.5     0.05859244     -5418.0220499317  1.29E-01
   152 Broy./Diag. 0.80E-01    1.5     0.06464368     -5418.2968757974 -2.75E-01
   153 Broy./Diag. 0.80E-01    1.5     0.03937142     -5418.3114850201 -1.46E-02
   154 Broy./Diag. 0.80E-01    1.5     0.01586632     -5418.0990120764  2.12E-01
   155 Broy./Diag. 0.80E-01    1.5     0.02316054     -5418.2839485201 -1.85E-01
   156 Broy./Diag. 0.80E-01    1.5     0.02298131     -5418.1840115064  9.99E-02
   157 Broy./Diag. 0.80E-01    1.5     0.05722790     -5418.0374988538  1.47E-01
   158 Broy./Diag. 0.80E-01    1.5     0.01262763     -5418.5485313631 -5.11E-01
   159 Broy./Diag. 0.80E-01    1.5     0.01950191     -5418.1160118683  4.33E-01
   160 Broy./Diag. 0.80E-01    1.5     0.05137528     -5418.6134412743 -4.97E-01
   161 Broy./Diag. 0.80E-01    1.5     0.01328848     -5418.4396148515  1.74E-01
   162 Broy./Diag. 0.80E-01    1.5     0.04201358     -5418.3463432372  9.33E-02
   163 Broy./Diag. 0.80E-01    1.5     0.01662992     -5418.0752288081  2.71E-01
   164 Broy./Diag. 0.80E-01    1.5     0.00412318     -5418.0766779951 -1.45E-03
   165 Broy./Diag. 0.80E-01    1.5     0.01120949     -5417.8245861372  2.52E-01
   166 Broy./Diag. 0.80E-01    1.5     0.02655029     -5418.3665292988 -5.42E-01
   167 Broy./Diag. 0.80E-01    1.5     0.00889085     -5418.6441200336 -2.78E-01
   168 Broy./Diag. 0.80E-01    1.5     0.00479846     -5418.6739859080 -2.99E-02
   169 Broy./Diag. 0.80E-01    1.5     0.00344387     -5418.7602486696 -8.63E-02
   170 Broy./Diag. 0.80E-01    1.5     0.01058248     -5418.6511867842  1.09E-01
   171 Broy./Diag. 0.80E-01    1.5     0.05544559     -5418.6230205694  2.82E-02
   172 Broy./Diag. 0.80E-01    1.5     0.04627473     -5419.1663766629 -5.43E-01
   173 Broy./Diag. 0.80E-01    1.5     0.01147143     -5418.2479989641  9.18E-01
   174 Broy./Diag. 0.80E-01    1.5     0.00564275     -5418.0573989537  1.91E-01
   175 Broy./Diag. 0.80E-01    1.5     0.01109931     -5418.1134354446 -5.60E-02
   176 Broy./Diag. 0.80E-01    1.5     0.00829694     -5418.1841166124 -7.07E-02
   177 Broy./Diag. 0.80E-01    1.5     0.01654349     -5417.9357281422  2.48E-01
   178 Broy./Diag. 0.80E-01    1.5     0.00226204     -5417.8201000839  1.16E-01
   179 Broy./Diag. 0.80E-01    1.5     0.00684151     -5417.7816617930  3.84E-02
   180 Broy./Diag. 0.80E-01    1.5     0.00351796     -5417.6514714345  1.30E-01
   181 Broy./Diag. 0.80E-01    1.5     0.00494070     -5417.6804020529 -2.89E-02
   182 Broy./Diag. 0.80E-01    1.5     0.00467347     -5417.7089003139 -2.85E-02
   183 Broy./Diag. 0.80E-01    1.5     0.00979354     -5417.8058208270 -9.69E-02
   184 Broy./Diag. 0.80E-01    1.5     0.01972516     -5417.7816131273  2.42E-02
   185 Broy./Diag. 0.80E-01    1.5     0.00816884     -5417.8347787478 -5.32E-02
   186 Broy./Diag. 0.80E-01    1.5     0.01953225     -5417.8090560364  2.57E-02
   187 Broy./Diag. 0.80E-01    1.5     0.00522986     -5417.6988793466  1.10E-01
   188 Broy./Diag. 0.80E-01    1.5     0.01467245     -5417.6560723404  4.28E-02
   189 Broy./Diag. 0.80E-01    1.5     0.01084465     -5417.6781246459 -2.21E-02
   190 Broy./Diag. 0.80E-01    1.5     0.00118550     -5417.8282898784 -1.50E-01
   191 Broy./Diag. 0.80E-01    1.5     0.00931401     -5417.7735985523  5.47E-02
   192 Broy./Diag. 0.80E-01    1.5     0.00103683     -5417.6453164715  1.28E-01
   193 Broy./Diag. 0.80E-01    1.5     0.01062094     -5417.6387089884  6.61E-03
   194 Broy./Diag. 0.80E-01    1.5     0.01312476     -5417.5748937167  6.38E-02
   195 Broy./Diag. 0.80E-01    1.5     0.00767581     -5417.6050867777 -3.02E-02
   196 Broy./Diag. 0.80E-01    1.5     0.01476133     -5417.7310177687 -1.26E-01
   197 Broy./Diag. 0.80E-01    1.5     0.03181453     -5417.8659903537 -1.35E-01
   198 Broy./Diag. 0.80E-01    1.5     0.00978799     -5417.6911417267  1.75E-01
   199 Broy./Diag. 0.80E-01    1.5     0.00529554     -5417.7412783578 -5.01E-02
   200 Broy./Diag. 0.80E-01    1.5     0.00263178     -5417.7812784339 -4.00E-02
   201 Broy./Diag. 0.80E-01    1.5     0.00650354     -5417.7538048551  2.75E-02
   202 Broy./Diag. 0.80E-01    1.5     0.00178593     -5417.6994320639  5.44E-02
   203 Broy./Diag. 0.80E-01    1.5     0.00514676     -5417.6690608578  3.04E-02
   204 Broy./Diag. 0.80E-01    1.5     0.00547643     -5417.6712740778 -2.21E-03
   205 Broy./Diag. 0.80E-01    1.5     0.01028366     -5417.7233867450 -5.21E-02
   206 Broy./Diag. 0.80E-01    1.5     0.00573029     -5417.7094056926  1.40E-02
   207 Broy./Diag. 0.80E-01    1.5     0.00552925     -5417.6742923762  3.51E-02
   208 Broy./Diag. 0.80E-01    1.5     0.00687418     -5417.7086517047 -3.44E-02
   209 Broy./Diag. 0.80E-01    1.5     0.01194369     -5417.7166196699 -7.97E-03
   210 Broy./Diag. 0.80E-01    1.5     0.01176452     -5417.6673748556  4.92E-02
   211 Broy./Diag. 0.80E-01    1.5     0.02321258     -5417.7104594339 -4.31E-02
   212 Broy./Diag. 0.80E-01    1.5     0.00451903     -5417.6513215198  5.91E-02
   213 Broy./Diag. 0.80E-01    1.5     0.00386767     -5417.6658196567 -1.45E-02
   214 Broy./Diag. 0.80E-01    1.5     0.00053932     -5417.7105309144 -4.47E-02
   215 Broy./Diag. 0.80E-01    1.5     0.01057378     -5417.7090808428  1.45E-03
   216 Broy./Diag. 0.80E-01    1.5     0.00795538     -5417.7246569094 -1.56E-02
   217 Broy./Diag. 0.80E-01    1.5     0.00852459     -5417.8028541577 -7.82E-02
   218 Broy./Diag. 0.80E-01    1.5     0.00643882     -5417.8520958586 -4.92E-02
   219 Broy./Diag. 0.80E-01    1.5     0.00945638     -5417.8405217507  1.16E-02
   220 Broy./Diag. 0.80E-01    1.5     0.00189869     -5417.8638727697 -2.34E-02
   221 Broy./Diag. 0.80E-01    1.5     0.01213088     -5417.8604501202  3.42E-03
   222 Broy./Diag. 0.80E-01    1.5     0.00559592     -5417.8356779286  2.48E-02
   223 Broy./Diag. 0.80E-01    1.5     0.01059310     -5417.8212752769  1.44E-02
   224 Broy./Diag. 0.80E-01    1.5     0.00759683     -5417.7190198868  1.02E-01
   225 Broy./Diag. 0.80E-01    1.5     0.01562174     -5417.7727455269 -5.37E-02
   226 Broy./Diag. 0.80E-01    1.5     0.00476765     -5417.7381596388  3.46E-02
   227 Broy./Diag. 0.80E-01    1.5     0.00577268     -5417.6837512104  5.44E-02
   228 Broy./Diag. 0.80E-01    1.5     0.00603830     -5417.7370365687 -5.33E-02
   229 Broy./Diag. 0.80E-01    1.5     0.00510097     -5417.6959594175  4.11E-02
   230 Broy./Diag. 0.80E-01    1.5     0.00192629     -5417.7340955484 -3.81E-02
   231 Broy./Diag. 0.80E-01    1.5     0.00986982     -5417.7071486899  2.69E-02
   232 Broy./Diag. 0.80E-01    1.5     0.00570154     -5417.7167351177 -9.59E-03
   233 Broy./Diag. 0.80E-01    1.5     0.00821320     -5417.7814870809 -6.48E-02
   234 Broy./Diag. 0.80E-01    1.5     0.01445270     -5417.6931446494  8.83E-02
   235 Broy./Diag. 0.80E-01    1.5     0.01764132     -5417.6565942437  3.66E-02
   236 Broy./Diag. 0.80E-01    1.5     0.00392029     -5417.6640013581 -7.41E-03
   237 Broy./Diag. 0.80E-01    1.5     0.00972851     -5417.6725004419 -8.50E-03
   238 Broy./Diag. 0.80E-01    1.5     0.02161494     -5417.6444240884  2.81E-02
   239 Broy./Diag. 0.80E-01    1.5     0.02310236     -5417.6349457567  9.48E-03
   240 Broy./Diag. 0.80E-01    1.5     0.01262834     -5417.6695619677 -3.46E-02
   241 Broy./Diag. 0.80E-01    1.5     0.00484296     -5417.6358051820  3.38E-02
   242 Broy./Diag. 0.80E-01    1.5     0.02285610     -5417.6066326771  2.92E-02
   243 Broy./Diag. 0.80E-01    1.5     0.01273589     -5417.5612996256  4.53E-02
   244 Broy./Diag. 0.80E-01    1.5     0.00946169     -5417.5788131918 -1.75E-02
   245 Broy./Diag. 0.80E-01    1.5     0.01341440     -5417.5877286329 -8.92E-03
   246 Broy./Diag. 0.80E-01    1.5     0.00728362     -5417.6049162365 -1.72E-02
   247 Broy./Diag. 0.80E-01    1.5     0.01167031     -5417.5820435212  2.29E-02
   248 Broy./Diag. 0.80E-01    1.5     0.01954280     -5417.6951417952 -1.13E-01
   249 Broy./Diag. 0.80E-01    1.5     0.00639721     -5417.7823670638 -8.72E-02
   250 Broy./Diag. 0.80E-01    1.5     0.01027195     -5417.7029786849  7.94E-02
   251 Broy./Diag. 0.80E-01    1.5     0.01564108     -5417.6970248805  5.95E-03
   252 Broy./Diag. 0.80E-01    1.5     0.02493820     -5417.7619076471 -6.49E-02
   253 Broy./Diag. 0.80E-01    1.5     0.00462339     -5417.7217740399  4.01E-02
   254 Broy./Diag. 0.80E-01    1.5     0.01216969     -5417.6817869645  4.00E-02
   255 Broy./Diag. 0.80E-01    1.5     0.00252631     -5417.6203821054  6.14E-02
   256 Broy./Diag. 0.80E-01    1.5     0.00075768     -5417.6503815918 -3.00E-02
   257 Broy./Diag. 0.80E-01    1.5     0.00507676     -5417.6533653988 -2.98E-03
   258 Broy./Diag. 0.80E-01    1.5     0.00761172     -5417.6277532996  2.56E-02
   259 Broy./Diag. 0.80E-01    1.5     0.00200088     -5417.6334413015 -5.69E-03
   260 Broy./Diag. 0.80E-01    1.5     0.00493942     -5417.6528401136 -1.94E-02
   261 Broy./Diag. 0.80E-01    1.5     0.00365766     -5417.6741620699 -2.13E-02
   262 Broy./Diag. 0.80E-01    1.5     0.00261901     -5417.6195134504  5.46E-02
   263 Broy./Diag. 0.80E-01    1.5     0.00444452     -5417.6382812375 -1.88E-02
   264 Broy./Diag. 0.80E-01    1.5     0.00251090     -5417.6305092867  7.77E-03
   265 Broy./Diag. 0.80E-01    1.5     0.01082538     -5417.6211133238  9.40E-03
   266 Broy./Diag. 0.80E-01    1.5     0.01073421     -5417.6985992506 -7.75E-02
   267 Broy./Diag. 0.80E-01    1.5     0.02207799     -5417.6911161214  7.48E-03
   268 Broy./Diag. 0.80E-01    1.5     0.00656102     -5417.8031391330 -1.12E-01
   269 Broy./Diag. 0.80E-01    1.5     0.00468032     -5417.7288801615  7.43E-02
   270 Broy./Diag. 0.80E-01    1.5     0.01928295     -5417.7492134388 -2.03E-02
   271 Broy./Diag. 0.80E-01    1.5     0.00326495     -5417.7678103600 -1.86E-02
   272 Broy./Diag. 0.80E-01    1.5     0.00111379     -5417.7872775182 -1.95E-02
   273 Broy./Diag. 0.80E-01    1.5     0.00803289     -5417.7933682545 -6.09E-03
   274 Broy./Diag. 0.80E-01    1.5     0.00778213     -5417.6788140058  1.15E-01
   275 Broy./Diag. 0.80E-01    1.5     0.01025323     -5417.7207818615 -4.20E-02
   276 Broy./Diag. 0.80E-01    1.5     0.00634234     -5417.7211276435 -3.46E-04
   277 Broy./Diag. 0.80E-01    1.5     0.00241394     -5417.7400164406 -1.89E-02
   278 Broy./Diag. 0.80E-01    1.5     0.00727143     -5417.7322963165  7.72E-03
   279 Broy./Diag. 0.80E-01    1.5     0.00307961     -5417.6726521409  5.96E-02
   280 Broy./Diag. 0.80E-01    1.5     0.01248006     -5417.6736726228 -1.02E-03
   281 Broy./Diag. 0.80E-01    1.5     0.00565367     -5417.7423543718 -6.87E-02
   282 Broy./Diag. 0.80E-01    1.5     0.00457877     -5417.6584703257  8.39E-02
   283 Broy./Diag. 0.80E-01    1.5     0.00223997     -5417.6118261619  4.66E-02
   284 Broy./Diag. 0.80E-01    1.5     0.01448886     -5417.5991246194  1.27E-02
   285 Broy./Diag. 0.80E-01    1.5     0.00641775     -5417.6952899197 -9.62E-02
   286 Broy./Diag. 0.80E-01    1.5     0.00213890     -5417.6636181609  3.17E-02
   287 Broy./Diag. 0.80E-01    1.5     0.00338462     -5417.6491360241  1.45E-02
   288 Broy./Diag. 0.80E-01    1.5     0.00468705     -5417.6921302383 -4.30E-02
   289 Broy./Diag. 0.80E-01    1.5     0.00412724     -5417.6756626071  1.65E-02
   290 Broy./Diag. 0.80E-01    1.5     0.00372388     -5417.6452814008  3.04E-02
   291 Broy./Diag. 0.80E-01    1.5     0.00162908     -5417.6753838693 -3.01E-02
   292 Broy./Diag. 0.80E-01    1.5     0.00377308     -5417.6392380647  3.61E-02
   293 Broy./Diag. 0.80E-01    1.5     0.00704028     -5417.6571975448 -1.80E-02
   294 Broy./Diag. 0.80E-01    1.5     0.00717259     -5417.7117188532 -5.45E-02
   295 Broy./Diag. 0.80E-01    1.5     0.01085103     -5417.7583781977 -4.67E-02
   296 Broy./Diag. 0.80E-01    1.5     0.00722415     -5417.7911159602 -3.27E-02
   297 Broy./Diag. 0.80E-01    1.5     0.00217149     -5417.8191299465 -2.80E-02
   298 Broy./Diag. 0.80E-01    1.5     0.00338768     -5417.7933758990  2.58E-02
   299 Broy./Diag. 0.80E-01    1.5     0.00742086     -5417.7382148736  5.52E-02
   300 Broy./Diag. 0.80E-01    1.5     0.00537302     -5417.8318610749 -9.36E-02
   301 Broy./Diag. 0.80E-01    1.5     0.00791046     -5417.8916065785 -5.97E-02
   302 Broy./Diag. 0.80E-01    1.5     0.00390931     -5417.8096845083  8.19E-02
   303 Broy./Diag. 0.80E-01    1.5     0.01508232     -5417.7652847859  4.44E-02
   304 Broy./Diag. 0.80E-01    1.5     0.00686028     -5417.7471635198  1.81E-02
   305 Broy./Diag. 0.80E-01    1.5     0.02343637     -5417.7394830142  7.68E-03
   306 Broy./Diag. 0.80E-01    1.5     0.00503384     -5417.6606217907  7.89E-02
   307 Broy./Diag. 0.80E-01    1.5     0.00950460     -5417.7052810154 -4.47E-02
   308 Broy./Diag. 0.80E-01    1.5     0.01040811     -5417.6725979786  3.27E-02
   309 Broy./Diag. 0.80E-01    1.5     0.00646218     -5417.6291672017  4.34E-02
   310 Broy./Diag. 0.80E-01    1.5     0.00393303     -5417.5562629202  7.29E-02
   311 Broy./Diag. 0.80E-01    1.5     0.00333909     -5417.5316863357  2.46E-02
   312 Broy./Diag. 0.80E-01    1.5     0.00181610     -5417.5225829484  9.10E-03
   313 Broy./Diag. 0.80E-01    1.5     0.01223819     -5417.5387376679 -1.62E-02
   314 Broy./Diag. 0.80E-01    1.5     0.00302872     -5417.6688952373 -1.30E-01
   315 Broy./Diag. 0.80E-01    1.5     0.00565549     -5417.6595610820  9.33E-03
   316 Broy./Diag. 0.80E-01    1.5     0.00882086     -5417.7400867261 -8.05E-02
   317 Broy./Diag. 0.80E-01    1.5     0.01280184     -5417.6036864651  1.36E-01
   318 Broy./Diag. 0.80E-01    1.5     0.00914825     -5417.7304180446 -1.27E-01
   319 Broy./Diag. 0.80E-01    1.5     0.00477482     -5417.7195348087  1.09E-02
   320 Broy./Diag. 0.80E-01    1.5     0.00495853     -5417.7660076939 -4.65E-02
   321 Broy./Diag. 0.80E-01    1.5     0.00602724     -5417.8358390899 -6.98E-02
   322 Broy./Diag. 0.80E-01    1.5     0.00739338     -5417.8406251999 -4.79E-03
   323 Broy./Diag. 0.80E-01    1.5     0.00594637     -5417.7602616553  8.04E-02
   324 Broy./Diag. 0.80E-01    1.5     0.00162511     -5417.7639404991 -3.68E-03
   325 Broy./Diag. 0.80E-01    1.5     0.00371563     -5417.7424847562  2.15E-02
   326 Broy./Diag. 0.80E-01    1.5     0.01138165     -5417.7038472562  3.86E-02
   327 Broy./Diag. 0.80E-01    1.5     0.00715958     -5417.7946635131 -9.08E-02
   328 Broy./Diag. 0.80E-01    1.5     0.00595914     -5417.7844587518  1.02E-02
   329 Broy./Diag. 0.80E-01    1.5     0.00332855     -5417.7824780447  1.98E-03
   330 Broy./Diag. 0.80E-01    1.5     0.00687061     -5417.7977672582 -1.53E-02
   331 Broy./Diag. 0.80E-01    1.5     0.00728468     -5417.8105461037 -1.28E-02
   332 Broy./Diag. 0.80E-01    1.5     0.00914570     -5417.7037933924  1.07E-01
   333 Broy./Diag. 0.80E-01    1.5     0.00741915     -5417.7943448284 -9.06E-02
   334 Broy./Diag. 0.80E-01    1.5     0.00580778     -5417.7444174737  4.99E-02
   335 Broy./Diag. 0.80E-01    1.5     0.00742679     -5417.7459734251 -1.56E-03
   336 Broy./Diag. 0.80E-01    1.5     0.02588694     -5417.5758570767  1.70E-01
   337 Broy./Diag. 0.80E-01    1.5     0.00430264     -5417.7127053033 -1.37E-01
   338 Broy./Diag. 0.80E-01    1.5     0.00467399     -5417.6620768911  5.06E-02
   339 Broy./Diag. 0.80E-01    1.5     0.00712955     -5417.5858998118  7.62E-02
   340 Broy./Diag. 0.80E-01    1.5     0.00882681     -5417.5184106999  6.75E-02
   341 Broy./Diag. 0.80E-01    1.5     0.01225915     -5417.4544738833  6.39E-02
   342 Broy./Diag. 0.80E-01    1.5     0.00440314     -5417.5254181093 -7.09E-02
   343 Broy./Diag. 0.80E-01    1.5     0.00337196     -5417.5636996821 -3.83E-02
   344 Broy./Diag. 0.80E-01    1.5     0.00484133     -5417.5701143710 -6.41E-03
   345 Broy./Diag. 0.80E-01    1.5     0.00421928     -5417.5814534273 -1.13E-02
   346 Broy./Diag. 0.80E-01    1.5     0.00347186     -5417.5635845227  1.79E-02
   347 Broy./Diag. 0.80E-01    1.5     0.00253122     -5417.5820200579 -1.84E-02
   348 Broy./Diag. 0.80E-01    1.5     0.00126356     -5417.6189140880 -3.69E-02
   349 Broy./Diag. 0.80E-01    1.5     0.00656544     -5417.5934483893  2.55E-02
   350 Broy./Diag. 0.80E-01    1.5     0.01161619     -5417.3921925072  2.01E-01
   351 Broy./Diag. 0.80E-01    1.5     0.01439058     -5417.6779170779 -2.86E-01
   352 Broy./Diag. 0.80E-01    1.5     0.02320082     -5417.5700361925  1.08E-01
   353 Broy./Diag. 0.80E-01    1.5     0.01429323     -5417.7747791292 -2.05E-01
   354 Broy./Diag. 0.80E-01    1.5     0.00713631     -5417.6677245124  1.07E-01
   355 Broy./Diag. 0.80E-01    1.5     0.01452346     -5417.6064322896  6.13E-02
   356 Broy./Diag. 0.80E-01    1.5     0.01529728     -5417.6026426704  3.79E-03
   357 Broy./Diag. 0.80E-01    1.5     0.01213208     -5417.5656632447  3.70E-02
   358 Broy./Diag. 0.80E-01    1.5     0.00791764     -5417.5700050086 -4.34E-03
   359 Broy./Diag. 0.80E-01    1.5     0.00230694     -5417.5504789669  1.95E-02
   360 Broy./Diag. 0.80E-01    1.5     0.00306074     -5417.5653032633 -1.48E-02
   361 Broy./Diag. 0.80E-01    1.5     0.01599423     -5417.5688226550 -3.52E-03
