 DBCSR| CPU Multiplication driver                                           XSMM (U)
 DBCSR| Multrec recursion limit                                              512 (U)
 DBCSR| Multiplication stack size                                           1000 (D)
 DBCSR| Maximum elements for images                                    UNLIMITED (U)
 DBCSR| Multiplicative factor virtual images                                   1 (U)
 DBCSR| Use multiplication densification                                       T (D)
 DBCSR| Multiplication size stacks                                             3 (U)
 DBCSR| Use memory pool for CPU allocation                                     F (U)
 DBCSR| Number of 3D layers                                               SINGLE (U)
 DBCSR| Use MPI memory allocation                                              F (U)
 DBCSR| Use RMA algorithm                                                      F (U)
 DBCSR| Use Communication thread                                               T (U)
 DBCSR| Communication thread load                                             87 (D)
 DBCSR| MPI: My process id                                                     0
 DBCSR| MPI: Number of processes                                             128
 DBCSR| OMP: Current number of threads                                         1
 DBCSR| OMP: Max number of threads                                             1
 DBCSR| Split modifier for TAS multiplication algorithm                  1.0E+00 (U)


  **** **** ******  **  PROGRAM STARTED AT               2023-02-06 16:41:21.027
 ***** ** ***  *** **   PROGRAM STARTED ON                             nid003587
 **    ****   ******    PROGRAM STARTED BY                                cahart
 ***** **    ** ** **   PROGRAM PROCESS ID                                107064
  **** **  *******  **  PROGRAM STARTED IN /mnt/lustre/a2fs-work2/work/e05/e05/c
                                           ahart/postdoc/masters/ni/archer2/bulk
                                           /optimise/multiplicity-65-magnetizati
                                           on/search/1.0E-2_4.0E-01

 CP2K| version string:                                       CP2K version 2023.1
 CP2K| source code revision number:                                  git:b888bd8
 CP2K| cp2kflags: omp libint fftw3 libxc elpa parallel scalapack xsmm plumed2 mk
 CP2K|            l
 CP2K| is freely available from                            https://www.cp2k.org/
 CP2K| Program compiled at                          Tue Jan 24 12:43:13 GMT 2023
 CP2K| Program compiled on                                                  ln03
 CP2K| Program compiled for                                              ARCHER2
 CP2K| Data directory path    /mnt/lustre/a2fs-work1/work/y07/shared/apps/core/c
 CP2K| Input file name                                                  cp2k.inp

 GLOBAL| Force Environment number                                              1
 GLOBAL| Basis set file name                                        BASIS_MOLOPT
 GLOBAL| Potential file name                                      GTH_POTENTIALS
 GLOBAL| MM Potential file name                                     MM_POTENTIAL
 GLOBAL| Coordinate file name                                      __STD_INPUT__
 GLOBAL| Method name                                                        CP2K
 GLOBAL| Project name                                                    Ni_bulk
 GLOBAL| Run type                                                         ENERGY
 GLOBAL| FFT library                                                       FFTW3
 GLOBAL| Diagonalization library                                            ELPA
 GLOBAL| DGEMM library                                                      BLAS
 GLOBAL| Minimum number of eigenvectors for ELPA usage                        16
 GLOBAL| Orthonormality check for eigenvectors                          DISABLED
 GLOBAL| Matrix multiplication library                                 ScaLAPACK
 GLOBAL| All-to-all communication in single precision                          F
 GLOBAL| FFTs using library dependent lengths                                  F
 GLOBAL| Grid backend                                                       AUTO
 GLOBAL| Global print level                                               MEDIUM
 GLOBAL| MPI I/O enabled                                                       T
 GLOBAL| Total number of message passing processes                           128
 GLOBAL| Number of threads for this process                                    1
 GLOBAL| This output is from process                                           0
 GLOBAL| Stack size for threads created by OpenMP (OMP_STACKSIZE)        default
 GLOBAL| CPU model name                          AMD EPYC 7742 64-Core Processor
 GLOBAL| CPUID                                                              1002

 MEMORY| system memory details [Kb]
 MEMORY|                        rank 0           min           max       average
 MEMORY| MemTotal            263528084     263528084     263528084     263528084
 MEMORY| MemFree             242368268     242368268     242368268     242368268
 MEMORY| Buffers                 24452         24452         24452         24452
 MEMORY| Cached                 674324        674324        674324        674324
 MEMORY| Slab                  1529880       1529880       1529880       1529880
 MEMORY| SReclaimable            87700         87700         87700         87700
 MEMORY| MemLikelyFree       243154744     243154744     243154744     243154744


 *** Fundamental physical constants (SI units) ***

 *** Literature: B. J. Mohr and B. N. Taylor,
 ***             CODATA recommended values of the fundamental physical
 ***             constants: 2006, Web Version 5.1
 ***             http://physics.nist.gov/constants

 Speed of light in vacuum [m/s]                             2.99792458000000E+08
 Magnetic constant or permeability of vacuum [N/A**2]       1.25663706143592E-06
 Electric constant or permittivity of vacuum [F/m]          8.85418781762039E-12
 Planck constant (h) [J*s]                                  6.62606896000000E-34
 Planck constant (h-bar) [J*s]                              1.05457162825177E-34
 Elementary charge [C]                                      1.60217648700000E-19
 Electron mass [kg]                                         9.10938215000000E-31
 Electron g factor [ ]                                     -2.00231930436220E+00
 Proton mass [kg]                                           1.67262163700000E-27
 Fine-structure constant                                    7.29735253760000E-03
 Rydberg constant [1/m]                                     1.09737315685270E+07
 Avogadro constant [1/mol]                                  6.02214179000000E+23
 Boltzmann constant [J/K]                                   1.38065040000000E-23
 Atomic mass unit [kg]                                      1.66053878200000E-27
 Bohr radius [m]                                            5.29177208590000E-11

 *** Conversion factors ***

 [u] -> [a.u.]                                              1.82288848426455E+03
 [Angstrom] -> [Bohr] = [a.u.]                              1.88972613288564E+00
 [a.u.] = [Bohr] -> [Angstrom]                              5.29177208590000E-01
 [a.u.] -> [s]                                              2.41888432650478E-17
 [a.u.] -> [fs]                                             2.41888432650478E-02
 [a.u.] -> [J]                                              4.35974393937059E-18
 [a.u.] -> [N]                                              8.23872205491840E-08
 [a.u.] -> [K]                                              3.15774647902944E+05
 [a.u.] -> [kJ/mol]                                         2.62549961709828E+03
 [a.u.] -> [kcal/mol]                                       6.27509468713739E+02
 [a.u.] -> [Pa]                                             2.94210107994716E+13
 [a.u.] -> [bar]                                            2.94210107994716E+08
 [a.u.] -> [atm]                                            2.90362800883016E+08
 [a.u.] -> [eV]                                             2.72113838565563E+01
 [a.u.] -> [Hz]                                             6.57968392072181E+15
 [a.u.] -> [1/cm] (wave numbers)                            2.19474631370540E+05
 [a.u./Bohr**2] -> [1/cm]                                   5.14048714338585E+03
 

 CELL_TOP| Volume [angstrom^3]:                                       344.707437
 CELL_TOP| Vector a [angstrom     7.012     0.000     0.000   |a| =     7.011596
 CELL_TOP| Vector b [angstrom     0.000     7.012     0.000   |b| =     7.011596
 CELL_TOP| Vector c [angstrom     0.000     0.000     7.012   |c| =     7.011596
 CELL_TOP| Angle (b,c), alpha [degree]:                                90.000000
 CELL_TOP| Angle (a,c), beta  [degree]:                                90.000000
 CELL_TOP| Angle (a,b), gamma [degree]:                                90.000000
 CELL_TOP| Numerically orthorhombic:                                         YES
 CELL_TOP| Periodicity                                                       XYZ

 CELL_UC| Volume [angstrom^3]:                                         43.088430
 CELL_UC| Vector a [angstrom]     3.506     0.000     0.000   |a| =     3.505798
 CELL_UC| Vector b [angstrom]     0.000     3.506     0.000   |b| =     3.505798
 CELL_UC| Vector c [angstrom]     0.000     0.000     3.506   |c| =     3.505798
 CELL_UC| Angle (b,c), alpha [degree]:                                 90.000000
 CELL_UC| Angle (a,c), beta  [degree]:                                 90.000000
 CELL_UC| Angle (a,b), gamma [degree]:                                 90.000000
 CELL_UC| Numerically orthorhombic:                                          YES
 CELL_UC| Periodicity                                                        XYZ

 GENERATE|  Preliminary Number of Bonds generated:                             0
 GENERATE|  Achieved consistency in connectivity generation.

 CELL| Volume [angstrom^3]:                                           344.707437
 CELL| Vector a [angstrom]:       7.012     0.000     0.000   |a| =     7.011596
 CELL| Vector b [angstrom]:       0.000     7.012     0.000   |b| =     7.011596
 CELL| Vector c [angstrom]:       0.000     0.000     7.012   |c| =     7.011596
 CELL| Angle (b,c), alpha [degree]:                                    90.000000
 CELL| Angle (a,c), beta  [degree]:                                    90.000000
 CELL| Angle (a,b), gamma [degree]:                                    90.000000
 CELL| Numerically orthorhombic:                                             YES
 CELL| Periodicity                                                           XYZ

 CELL_REF| Volume [angstrom^3]:                                       344.707437
 CELL_REF| Vector a [angstrom     7.012     0.000     0.000   |a| =     7.011596
 CELL_REF| Vector b [angstrom     0.000     7.012     0.000   |b| =     7.011596
 CELL_REF| Vector c [angstrom     0.000     0.000     7.012   |c| =     7.011596
 CELL_REF| Angle (b,c), alpha [degree]:                                90.000000
 CELL_REF| Angle (a,c), beta  [degree]:                                90.000000
 CELL_REF| Angle (a,b), gamma [degree]:                                90.000000
 CELL_REF| Numerically orthorhombic:                                         YES
 CELL_REF| Periodicity                                                       XYZ

 *******************************************************************************
 *******************************************************************************
 **                                                                           **
 **     #####                         ##              ##                      **
 **    ##   ##            ##          ##              ##                      **
 **   ##     ##                       ##            ######                    **
 **   ##     ##  ##   ##  ##   #####  ##  ##   ####   ##    #####    #####    **
 **   ##     ##  ##   ##  ##  ##      ## ##   ##      ##   ##   ##  ##   ##   **
 **   ##  ## ##  ##   ##  ##  ##      ####     ###    ##   ######   ######    **
 **    ##  ###   ##   ##  ##  ##      ## ##      ##   ##   ##       ##        **
 **     #######   #####   ##   #####  ##  ##  ####    ##    #####   ##        **
 **           ##                                                    ##        **
 **                                                                           **
 **                                                ... make the atoms dance   **
 **                                                                           **
 **            Copyright (C) by CP2K developers group (2000-2022)             **
 **                      J. Chem. Phys. 152, 194103 (2020)                    **
 **                                                                           **
 *******************************************************************************

 *** WARNING in qs_environment.F:1470 :: More ADDED_MOs requested for beta ***
 *** spin than available.                                                  ***


 *** WARNING in qs_environment.F:1486 :: More added MOs requested than     ***
 *** available. The full set of unoccupied MOs will be used. Use           ***
 *** 'ADDED_MOS -1' to always use all available MOs and to get rid of this ***
 *** warning.                                                              ***


 DFT| Spin unrestricted (spin-polarized) Kohn-Sham calculation               UKS
 DFT| Multiplicity                                                            65
 DFT| Number of spin states                                                    2
 DFT| Charge                                                                   0
 DFT| Self-interaction correction (SIC)                                       NO
 DFT| Cutoffs: density                                              1.000000E-10
 DFT|          gradient                                             1.000000E-10
 DFT|          tau                                                  1.000000E-10
 DFT|          cutoff_smoothing_range                               0.000000E+00
 DFT| XC density smoothing                                                  NONE
 DFT| XC derivatives                                                          PW

 FUNCTIONAL| PBE:
 FUNCTIONAL| J.P.Perdew, K.Burke, M.Ernzerhof, Phys. Rev. Letter, vol. 77, n 18,
 FUNCTIONAL|  pp. 3865-3868, (1996){spin polarized}                             


 QS| Method:                                                                 GPW
 QS| Density plane wave grid type                        NON-SPHERICAL FULLSPACE
 QS| Number of grid levels:                                                    5
 QS| Density cutoff [a.u.]:                                                300.0
 QS| Multi grid cutoff [a.u.]: 1) grid level                               300.0
 QS|                           2) grid level                               100.0
 QS|                           3) grid level                                33.3
 QS|                           4) grid level                                11.1
 QS|                           5) grid level                                 3.7
 QS| Grid level progression factor:                                          3.0
 QS| Relative density cutoff [a.u.]:                                        30.0
 QS| Interaction thresholds: eps_pgf_orb:                                1.0E-06
 QS|                         eps_filter_matrix:                          0.0E+00
 QS|                         eps_core_charge:                            1.0E-14
 QS|                         eps_rho_gspace:                             1.0E-12
 QS|                         eps_rho_rspace:                             1.0E-12
 QS|                         eps_gvg_rspace:                             1.0E-06
 QS|                         eps_ppl:                                    1.0E-02
 QS|                         eps_ppnl:                                   1.0E-08


 ATOMIC KIND INFORMATION

  1. Atomic kind: Ni                                    Number of atoms:      32

     Orbital Basis Set                                        DZVP-MOLOPT-SR-GTH

       Number of orbital shell sets:                                           1
       Number of orbital shells:                                               8
       Number of primitive Cartesian functions:                                6
       Number of Cartesian basis functions:                                   31
       Number of spherical basis functions:                                   26
       Norm type:                                                              2

       Normalised Cartesian orbitals:

                        Set   Shell   Orbital            Exponent    Coefficient

                          1       1    2s               10.077428      -0.684558
                                                         5.847736      -0.844524
                                                         2.494033       1.088856
                                                         0.988355       0.395503
                                                         0.344978       0.010224
                                                         0.099466      -0.003250

                          1       2    3s               10.077428       0.096747
                                                         5.847736       0.162504
                                                         2.494033      -0.297192
                                                         0.988355      -0.319752
                                                         0.344978       0.088318
                                                         0.099466       0.118587

                          1       3    4s               10.077428       0.036437
                                                         5.847736      -0.381480
                                                         2.494033       0.003759
                                                         0.988355      -1.048256
                                                         0.344978       0.855825
                                                         0.099466      -0.176350

                          1       4    3px              10.077428      -3.133913
                                                         5.847736       3.027656
                                                         2.494033       2.353227
                                                         0.988355       0.554184
                                                         0.344978       0.019462
                                                         0.099466      -0.000291
                          1       4    3py              10.077428      -3.133913
                                                         5.847736       3.027656
                                                         2.494033       2.353227
                                                         0.988355       0.554184
                                                         0.344978       0.019462
                                                         0.099466      -0.000291
                          1       4    3pz              10.077428      -3.133913
                                                         5.847736       3.027656
                                                         2.494033       2.353227
                                                         0.988355       0.554184
                                                         0.344978       0.019462
                                                         0.099466      -0.000291

                          1       5    4px              10.077428      -0.112729
                                                         5.847736      -0.114008
                                                         2.494033      -0.347303
                                                         0.988355      -0.110323
                                                         0.344978       0.154096
                                                         0.099466       0.058386
                          1       5    4py              10.077428      -0.112729
                                                         5.847736      -0.114008
                                                         2.494033      -0.347303
                                                         0.988355      -0.110323
                                                         0.344978       0.154096
                                                         0.099466       0.058386
                          1       5    4pz              10.077428      -0.112729
                                                         5.847736      -0.114008
                                                         2.494033      -0.347303
                                                         0.988355      -0.110323
                                                         0.344978       0.154096
                                                         0.099466       0.058386

                          1       6    4dx2             10.077428       8.232726
                                                         5.847736       9.105758
                                                         2.494033       2.849835
                                                         0.988355       0.554319
                                                         0.344978       0.067245
                                                         0.099466       0.001940
                          1       6    4dxy             10.077428      14.259500
                                                         5.847736      15.771636
                                                         2.494033       4.936060
                                                         0.988355       0.960109
                                                         0.344978       0.116472
                                                         0.099466       0.003360
                          1       6    4dxz             10.077428      14.259500
                                                         5.847736      15.771636
                                                         2.494033       4.936060
                                                         0.988355       0.960109
                                                         0.344978       0.116472
                                                         0.099466       0.003360
                          1       6    4dy2             10.077428       8.232726
                                                         5.847736       9.105758
                                                         2.494033       2.849835
                                                         0.988355       0.554319
                                                         0.344978       0.067245
                                                         0.099466       0.001940
                          1       6    4dyz             10.077428      14.259500
                                                         5.847736      15.771636
                                                         2.494033       4.936060
                                                         0.988355       0.960109
                                                         0.344978       0.116472
                                                         0.099466       0.003360
                          1       6    4dz2             10.077428       8.232726
                                                         5.847736       9.105758
                                                         2.494033       2.849835
                                                         0.988355       0.554319
                                                         0.344978       0.067245
                                                         0.099466       0.001940

                          1       7    5dx2             10.077428      -2.715373
                                                         5.847736      -4.020640
                                                         2.494033      -1.397569
                                                         0.988355      -0.076143
                                                         0.344978       0.033435
                                                         0.099466       0.026032
                          1       7    5dxy             10.077428      -4.703164
                                                         5.847736      -6.963952
                                                         2.494033      -2.420661
                                                         0.988355      -0.131883
                                                         0.344978       0.057911
                                                         0.099466       0.045088
                          1       7    5dxz             10.077428      -4.703164
                                                         5.847736      -6.963952
                                                         2.494033      -2.420661
                                                         0.988355      -0.131883
                                                         0.344978       0.057911
                                                         0.099466       0.045088
                          1       7    5dy2             10.077428      -2.715373
                                                         5.847736      -4.020640
                                                         2.494033      -1.397569
                                                         0.988355      -0.076143
                                                         0.344978       0.033435
                                                         0.099466       0.026032
                          1       7    5dyz             10.077428      -4.703164
                                                         5.847736      -6.963952
                                                         2.494033      -2.420661
                                                         0.988355      -0.131883
                                                         0.344978       0.057911
                                                         0.099466       0.045088
                          1       7    5dz2             10.077428      -2.715373
                                                         5.847736      -4.020640
                                                         2.494033      -1.397569
                                                         0.988355      -0.076143
                                                         0.344978       0.033435
                                                         0.099466       0.026032

                          1       8    5fx3             10.077428      -0.467694
                                                         5.847736       0.618100
                                                         2.494033       0.066069
                                                         0.988355       0.262898
                                                         0.344978       0.004720
                                                         0.099466       0.007748
                          1       8    5fx2y            10.077428      -1.045795
                                                         5.847736       1.382114
                                                         2.494033       0.147734
                                                         0.988355       0.587859
                                                         0.344978       0.010555
                                                         0.099466       0.017325
                          1       8    5fx2z            10.077428      -1.045795
                                                         5.847736       1.382114
                                                         2.494033       0.147734
                                                         0.988355       0.587859
                                                         0.344978       0.010555
                                                         0.099466       0.017325
                          1       8    5fxy2            10.077428      -1.045795
                                                         5.847736       1.382114
                                                         2.494033       0.147734
                                                         0.988355       0.587859
                                                         0.344978       0.010555
                                                         0.099466       0.017325
                          1       8    5fxyz            10.077428      -1.811371
                                                         5.847736       2.393892
                                                         2.494033       0.255883
                                                         0.988355       1.018201
                                                         0.344978       0.018282
                                                         0.099466       0.030008
                          1       8    5fxz2            10.077428      -1.045795
                                                         5.847736       1.382114
                                                         2.494033       0.147734
                                                         0.988355       0.587859
                                                         0.344978       0.010555
                                                         0.099466       0.017325
                          1       8    5fy3             10.077428      -0.467694
                                                         5.847736       0.618100
                                                         2.494033       0.066069
                                                         0.988355       0.262898
                                                         0.344978       0.004720
                                                         0.099466       0.007748
                          1       8    5fy2z            10.077428      -1.045795
                                                         5.847736       1.382114
                                                         2.494033       0.147734
                                                         0.988355       0.587859
                                                         0.344978       0.010555
                                                         0.099466       0.017325
                          1       8    5fyz2            10.077428      -1.045795
                                                         5.847736       1.382114
                                                         2.494033       0.147734
                                                         0.988355       0.587859
                                                         0.344978       0.010555
                                                         0.099466       0.017325
                          1       8    5fz3             10.077428      -0.467694
                                                         5.847736       0.618100
                                                         2.494033       0.066069
                                                         0.988355       0.262898
                                                         0.344978       0.004720
                                                         0.099466       0.007748

       Atomic covalent radius [Angstrom]:                                  1.150

       Atomic van der Waals radius [Angstrom]:                             1.630

     GTH Potential information for                                   GTH-PBE-q18

       Description:                       Goedecker-Teter-Hutter pseudopotential
                                           Goedecker et al., PRB 54, 1703 (1996)
                                          Hartwigsen et al., PRB 58, 3641 (1998)
                                                      Krack, TCA 114, 145 (2005)

       Gaussian exponent of the core charge distribution:               4.081633
       Electronic configuration (s p d ...):                           4   6   8

       Parameters of the local part of the GTH pseudopotential:

                          rloc        C1          C2          C3          C4
                        0.350000    2.102166    0.648484

       Parameters of the non-local part of the GTH pseudopotential:

                   l      r(l)      h(i,j,l)

                   0    0.261295    0.622658    9.970227
                                    9.970227  -12.871507
                   1    0.224253  -11.142708   12.429566
                                   12.429566  -14.706861
                   2    0.215348  -12.628146


 MOLECULE KIND INFORMATION


 All atoms are their own molecule, skipping detailed information


 TOTAL NUMBERS AND MAXIMUM NUMBERS

  Total number of            - Atomic kinds:                                   1
                             - Atoms:                                         32
                             - Shell sets:                                    32
                             - Shells:                                       256
                             - Primitive Cartesian functions:                192
                             - Cartesian basis functions:                    992
                             - Spherical basis functions:                    832

  Maximum angular momentum of- Orbital basis functions:                        3
                             - Local part of the GTH pseudopotential:          2
                             - Non-local part of the GTH pseudopotential:      3


 MODULE QUICKSTEP: ATOMIC COORDINATES IN ANGSTROM

   Atom Kind Element         X             Y             Z       Z(eff)     Mass
      1    1 Ni   28      0.000000      0.000000      0.000000  18.0000  58.6934
      2    1 Ni   28      0.000000      1.752900      1.752900  18.0000  58.6934
      3    1 Ni   28      1.752900      0.000000      1.752900  18.0000  58.6934
      4    1 Ni   28      1.752900      1.752900      0.000000  18.0000  58.6934
      5    1 Ni   28      3.505798      0.000000      0.000000  18.0000  58.6934
      6    1 Ni   28      3.505798      1.752900      1.752900  18.0000  58.6934
      7    1 Ni   28      5.258698      0.000000      1.752900  18.0000  58.6934
      8    1 Ni   28      5.258698      1.752900      0.000000  18.0000  58.6934
      9    1 Ni   28      0.000000      3.505798      0.000000  18.0000  58.6934
     10    1 Ni   28      0.000000      5.258698      1.752900  18.0000  58.6934
     11    1 Ni   28      1.752900      3.505798      1.752900  18.0000  58.6934
     12    1 Ni   28      1.752900      5.258698      0.000000  18.0000  58.6934
     13    1 Ni   28      3.505798      3.505798      0.000000  18.0000  58.6934
     14    1 Ni   28      3.505798      5.258698      1.752900  18.0000  58.6934
     15    1 Ni   28      5.258698      3.505798      1.752900  18.0000  58.6934
     16    1 Ni   28      5.258698      5.258698      0.000000  18.0000  58.6934
     17    1 Ni   28      0.000000      0.000000      3.505798  18.0000  58.6934
     18    1 Ni   28      0.000000      1.752900      5.258698  18.0000  58.6934
     19    1 Ni   28      1.752900      0.000000      5.258698  18.0000  58.6934
     20    1 Ni   28      1.752900      1.752900      3.505798  18.0000  58.6934
     21    1 Ni   28      3.505798      0.000000      3.505798  18.0000  58.6934
     22    1 Ni   28      3.505798      1.752900      5.258698  18.0000  58.6934
     23    1 Ni   28      5.258698      0.000000      5.258698  18.0000  58.6934
     24    1 Ni   28      5.258698      1.752900      3.505798  18.0000  58.6934
     25    1 Ni   28      0.000000      3.505798      3.505798  18.0000  58.6934
     26    1 Ni   28      0.000000      5.258698      5.258698  18.0000  58.6934
     27    1 Ni   28      1.752900      3.505798      5.258698  18.0000  58.6934
     28    1 Ni   28      1.752900      5.258698      3.505798  18.0000  58.6934
     29    1 Ni   28      3.505798      3.505798      3.505798  18.0000  58.6934
     30    1 Ni   28      3.505798      5.258698      5.258698  18.0000  58.6934
     31    1 Ni   28      5.258698      3.505798      5.258698  18.0000  58.6934
     32    1 Ni   28      5.258698      5.258698      3.505798  18.0000  58.6934



 SCF PARAMETERS         Density guess:                                    ATOMIC
                        --------------------------------------------------------
                        max_scf:                                             500
                        max_scf_history:                                       0
                        max_diis:                                             10
                        --------------------------------------------------------
                        eps_scf:                                        1.00E-08
                        eps_scf_history:                                0.00E+00
                        eps_diis:                                       1.00E-01
                        eps_eigval:                                     1.00E-05
                        --------------------------------------------------------
                        level_shift [a.u.]:                             0.000000
                        added MOs                                       512  576
                        --------------------------------------------------------
                        Mixing method:                            BROYDEN_MIXING
                                                charge density mixing in g-space
                        --------------------------------------------------------
                        Smear method:                                FERMI_DIRAC
                        Electronic temperature [K]:                        500.0
                        Electronic temperature [a.u.]:                  1.58E-03
                        Accuracy threshold:                             1.00E-10
                        --------------------------------------------------------
                        No outer SCF

 PW_GRID| Information for grid number                                          1
 PW_GRID| Grid distributed over                                   128 processors
 PW_GRID| Real space group dimensions                                     8   16
 PW_GRID| the grid is blocked:                                               YES
 PW_GRID| Cutoff [a.u.]                                                    300.0
 PW_GRID| spherical cutoff:                                                   NO
 PW_GRID|   Bounds   1            -54      53                Points:         108
 PW_GRID|   Bounds   2            -54      53                Points:         108
 PW_GRID|   Bounds   3            -54      53                Points:         108
 PW_GRID| Volume element (a.u.^3)  0.1847E-02     Volume (a.u.^3)      2326.2011
 PW_GRID| Grid span                                                    FULLSPACE
 PW_GRID|   Distribution                         Average         Max         Min
 PW_GRID|   G-Vectors                             9841.5       10584        8424
 PW_GRID|   G-Rays                                  91.1          98          78
 PW_GRID|   Real Space Points                     9841.5       10584        8424

 PW_GRID| Information for grid number                                          2
 PW_GRID| Number of the reference grid                                         1
 PW_GRID| Grid distributed over                                   128 processors
 PW_GRID| Real space group dimensions                                     8   16
 PW_GRID| the grid is blocked:                                                NO
 PW_GRID| Cutoff [a.u.]                                                    100.0
 PW_GRID| spherical cutoff:                                                   NO
 PW_GRID|   Bounds   1            -30      29                Points:          60
 PW_GRID|   Bounds   2            -30      29                Points:          60
 PW_GRID|   Bounds   3            -30      29                Points:          60
 PW_GRID| Volume element (a.u.^3)  0.1077E-01     Volume (a.u.^3)      2326.2011
 PW_GRID| Grid span                                                    FULLSPACE
 PW_GRID|   Distribution                         Average         Max         Min
 PW_GRID|   G-Vectors                             1687.5        5880           0
 PW_GRID|   G-Rays                                  28.1          98           0
 PW_GRID|   Real Space Points                     1687.5        1920        1260

 PW_GRID| Information for grid number                                          3
 PW_GRID| Number of the reference grid                                         1
 PW_GRID| Grid distributed over                                   128 processors
 PW_GRID| Real space group dimensions                                     8   16
 PW_GRID| the grid is blocked:                                                NO
 PW_GRID| Cutoff [a.u.]                                                     33.3
 PW_GRID| spherical cutoff:                                                   NO
 PW_GRID|   Bounds   1            -18      17                Points:          36
 PW_GRID|   Bounds   2            -18      17                Points:          36
 PW_GRID|   Bounds   3            -18      17                Points:          36
 PW_GRID| Volume element (a.u.^3)  0.4986E-01     Volume (a.u.^3)      2326.2011
 PW_GRID| Grid span                                                    FULLSPACE
 PW_GRID|   Distribution                         Average         Max         Min
 PW_GRID|   G-Vectors                              364.5        3528           0
 PW_GRID|   G-Rays                                  10.1          98           0
 PW_GRID|   Real Space Points                      364.5         540         288

 PW_GRID| Information for grid number                                          4
 PW_GRID| Number of the reference grid                                         1
 PW_GRID| Grid distributed over                                   128 processors
 PW_GRID| Real space group dimensions                                     8   16
 PW_GRID| the grid is blocked:                                                NO
 PW_GRID| Cutoff [a.u.]                                                     11.1
 PW_GRID| spherical cutoff:                                                   NO
 PW_GRID|   Bounds   1            -10       9                Points:          20
 PW_GRID|   Bounds   2            -10       9                Points:          20
 PW_GRID|   Bounds   3            -10       9                Points:          20
 PW_GRID| Volume element (a.u.^3)  0.2908         Volume (a.u.^3)      2326.2011
 PW_GRID| Grid span                                                    FULLSPACE
 PW_GRID|   Distribution                         Average         Max         Min
 PW_GRID|   G-Vectors                               62.5        1400           0
 PW_GRID|   G-Rays                                   3.1          70           0
 PW_GRID|   Real Space Points                       62.5         120          40

 PW_GRID| Information for grid number                                          5
 PW_GRID| Number of the reference grid                                         1
 PW_GRID| Grid distributed over                                   128 processors
 PW_GRID| Real space group dimensions                                     8   16
 PW_GRID| the grid is blocked:                                                NO
 PW_GRID| Cutoff [a.u.]                                                      3.7
 PW_GRID| spherical cutoff:                                                   NO
 PW_GRID|   Bounds   1             -6       5                Points:          12
 PW_GRID|   Bounds   2             -6       5                Points:          12
 PW_GRID|   Bounds   3             -6       5                Points:          12
 PW_GRID| Volume element (a.u.^3)   1.346         Volume (a.u.^3)      2326.2011
 PW_GRID| Grid span                                                    FULLSPACE
 PW_GRID|   Distribution                         Average         Max         Min
 PW_GRID|   G-Vectors                               13.5         432           0
 PW_GRID|   G-Rays                                   1.1          36           0
 PW_GRID|   Real Space Points                       13.5          24           0

 POISSON| Solver                                                        PERIODIC
 POISSON| Periodicity                                                        XYZ

 RS_GRID| Information for grid number                                          1
 RS_GRID|   Bounds   1            -54      53                Points:         108
 RS_GRID|   Bounds   2            -54      53                Points:         108
 RS_GRID|   Bounds   3            -54      53                Points:         108
 RS_GRID| Real space distribution over                                  8 groups
 RS_GRID| Real space distribution along direction                              2
 RS_GRID| Border size                                                         28
 RS_GRID| Real space distribution over                                 16 groups
 RS_GRID| Real space distribution along direction                              3
 RS_GRID| Border size                                                         28
 RS_GRID|   Distribution                         Average         Max         Min
 RS_GRID|   Planes                                  69.5          70          69
 RS_GRID|   Distribution                         Average         Max         Min
 RS_GRID|   Planes                                  62.8          63          62

 RS_GRID| Information for grid number                                          2
 RS_GRID|   Bounds   1            -30      29                Points:          60
 RS_GRID|   Bounds   2            -30      29                Points:          60
 RS_GRID|   Bounds   3            -30      29                Points:          60
 RS_GRID| Real space fully replicated
 RS_GRID| Group size                                                           1

 RS_GRID| Information for grid number                                          3
 RS_GRID|   Bounds   1            -18      17                Points:          36
 RS_GRID|   Bounds   2            -18      17                Points:          36
 RS_GRID|   Bounds   3            -18      17                Points:          36
 RS_GRID| Real space fully replicated
 RS_GRID| Group size                                                           1

 RS_GRID| Information for grid number                                          4
 RS_GRID|   Bounds   1            -10       9                Points:          20
 RS_GRID|   Bounds   2            -10       9                Points:          20
 RS_GRID|   Bounds   3            -10       9                Points:          20
 RS_GRID| Real space fully replicated
 RS_GRID| Group size                                                           1

 RS_GRID| Information for grid number                                          5
 RS_GRID|   Bounds   1             -6       5                Points:          12
 RS_GRID|   Bounds   2             -6       5                Points:          12
 RS_GRID|   Bounds   3             -6       5                Points:          12
 RS_GRID| Real space fully replicated
 RS_GRID| Group size                                                           1

 Spin 1

 Number of electrons:                                                        320
 Number of occupied orbitals:                                                320
 Number of molecular orbitals:                                               832

 Spin 2

 Number of electrons:                                                        256
 Number of occupied orbitals:                                                256
 Number of molecular orbitals:                                               832

 Number of orbital functions:                                                832
 Number of independent orbital functions:                                    832

 Extrapolation method: initial_guess

 Atomic guess: The first density matrix is obtained in terms of atomic orbitals
               and electronic configurations assigned to each atomic kind

 Guess for atomic kind: Ni

 Electronic structure
    Total number of core electrons                                         10.00
    Total number of valence electrons                                      18.00
    Total number of electrons                                              28.00
    Multiplicity                                                         triplet
    Alpha Electrons
    S   [  1.00  1.00] 1.00  1.00
    P   [  3.00] 3.00
    D      5.00
    Beta Electrons
    S   [  1.00  1.00] 1.00  1.00
    P   [  3.00] 3.00
    D      3.00


 *******************************************************************************
                  Iteration          Convergence                     Energy [au]
 *******************************************************************************
                          1         1.61955                    -167.102733612646
                          2         17.9576                    -156.964728082342
                          3         2.81889                    -168.347679739779
                          4        0.300879                    -168.639029543130
                          5        0.133614                    -168.643718125190
                          6        0.642384E-01                -168.645928334381
                          7        0.411618E-01                -168.646613747745
                          8        0.978516E-02                -168.646711132537
                          9        0.508781E-01                -168.646571314898
                         10        0.138948E-01                -168.646700563277
                         11        0.138660E-01                -168.646700237384
                         12        0.629414E-02                -168.646712261956
                         13        0.566241E-02                -168.646713151996
                         14        0.495313E-02                -168.646714117454
                         15        0.421991E-02                -168.646714987798
                         16        0.338228E-02                -168.646715812720
                         17        0.416465E-02                -168.646716816326
                         18        0.344616E-02                -168.646717043212
                         19        0.330991E-02                -168.646717101846
                         20        0.313342E-02                -168.646717172930
                         21        0.281829E-02                -168.646717286496
                         22        0.848656E-03                -168.646717732580
                         23        0.109512E-02                -168.646717723740
                         24        0.104995E-02                -168.646717732012
                         25        0.102855E-02                -168.646717736906
                         26        0.100245E-02                -168.646717743176
                         27        0.676032E-03                -168.646717806927
                         28        0.602106E-03                -168.646717861030
                         29        0.625282E-03                -168.646717860099
                         30        0.624945E-03                -168.646717860052
                         31        0.623853E-03                -168.646717860100
                         32        0.624150E-03                -168.646717860067
                         33        0.237289E-03                -168.646717879062
                         34        0.180801E-03                -168.646717882280
                         35        0.181452E-03                -168.646717882256
                         36        0.181661E-03                -168.646717882245
                         37        0.181696E-03                -168.646717882243
                         38        0.180660E-03                -168.646717882285
                         39        0.167278E-03                -168.646717884960
                         40        0.108251E-03                -168.646717886084
                         41        0.108355E-03                -168.646717886083
                         42        0.108427E-03                -168.646717886083
                         43        0.108486E-03                -168.646717886083
                         44        0.108485E-03                -168.646717886083
                         45        0.694677E-04                -168.646717886478
                         46        0.318666E-04                -168.646717886752
                         47        0.318508E-04                -168.646717886753
                         48        0.318379E-04                -168.646717886753
                         49        0.318252E-04                -168.646717886753
                         50        0.320703E-04                -168.646717886751
 No convergence within maximum number of iterations 

 Energy components [Hartree]           Total Energy ::         -168.646717886751
                                        Band Energy ::          -26.584923955507
                                     Kinetic Energy ::           97.352330251814
                                   Potential Energy ::         -265.999048138565
                                      Virial (-V/T) ::            2.732333652934
                                        Core Energy ::         -299.595021414610
                                          XC Energy ::          -16.265210292971
                                     Coulomb Energy ::          147.213513820830
                       Total Pseudopotential Energy ::         -397.033695283644
                       Local Pseudopotential Energy ::         -362.697061997994
                    Nonlocal Pseudopotential Energy ::          -34.336633285650
                                        Confinement ::            0.863436172188

 Orbital energies  State     Spin  L     Occupation   Energy[a.u.]    Energy[eV]

                       1    alpha  0          1.000      -4.198782   -114.254674
                       2    alpha  0          1.000      -0.185813     -5.056229
                       1     beta  0          1.000      -4.107299   -111.765292
                       2     beta  0          1.000      -0.171331     -4.662162

                       1    alpha  1          3.000      -2.604156    -70.862688
                       1     beta  1          3.000      -2.515143    -68.440529

                       1    alpha  2          5.000      -0.348813     -9.491687
                       1     beta  2          3.000      -0.273245     -7.435375


 Total Electron Density at R=0:                                         0.030313

 Spin 1
 Re-scaling the density matrix to get the right number of electrons for spin 1
                  # Electrons              Trace(P)               Scaling factor
                          320               320.032                        1.000

 Spin 2
 Re-scaling the density matrix to get the right number of electrons for spin 2
                  # Electrons              Trace(P)               Scaling factor
                          256               256.035                        1.000


 SCF WAVEFUNCTION OPTIMIZATION

  Step     Update method      Time    Convergence         Total energy    Change
  ------------------------------------------------------------------------------
     1 NoMix/Diag. 0.10E-01    0.9     0.80945817     -5430.5035547420 -5.43E+03
     2 Broy./Diag. 0.10E-01    0.6     0.00183584     -5361.2616347928  6.92E+01
     3 Broy./Diag. 0.10E-01    0.6     0.03787045     -5373.5283697885 -1.23E+01
     4 Broy./Diag. 0.10E-01    0.6     0.04347853     -5411.6918550258 -3.82E+01
     5 Broy./Diag. 0.10E-01    0.6     0.02190440     -5401.8855219129  9.81E+00
     6 Broy./Diag. 0.10E-01    0.6     0.02007183     -5381.3927433119  2.05E+01
     7 Broy./Diag. 0.10E-01    0.6     0.02960254     -5383.5987603825 -2.21E+00
     8 Broy./Diag. 0.10E-01    0.6     0.00153082     -5408.9802826283 -2.54E+01
     9 Broy./Diag. 0.10E-01    0.6     0.05108586     -5409.9673635028 -9.87E-01
    10 Broy./Diag. 0.10E-01    0.6     0.00735163     -5428.7605337664 -1.88E+01
    11 Broy./Diag. 0.10E-01    0.6     0.00618788     -5430.8255143765 -2.06E+00
    12 Broy./Diag. 0.10E-01    0.6     0.00247247     -5431.2803594306 -4.55E-01
    13 Broy./Diag. 0.10E-01    0.6     0.02669095     -5429.7157569740  1.56E+00
    14 Broy./Diag. 0.10E-01    0.6     0.01135690     -5418.5119045184  1.12E+01
    15 Broy./Diag. 0.10E-01    0.6     0.00400089     -5416.4918496186  2.02E+00
    16 Broy./Diag. 0.10E-01    0.6     0.00415637     -5418.4188687924 -1.93E+00
    17 Broy./Diag. 0.10E-01    0.6     0.02116069     -5420.3668649673 -1.95E+00
    18 Broy./Diag. 0.10E-01    0.6     0.02344861     -5411.2348686024  9.13E+00
    19 Broy./Diag. 0.10E-01    0.6     0.07030063     -5406.1787348375  5.06E+00
    20 Broy./Diag. 0.10E-01    0.6     0.02586657     -5403.9211282245  2.26E+00
    21 Broy./Diag. 0.10E-01    0.6     0.04006077     -5403.2356219280  6.86E-01
    22 Broy./Diag. 0.10E-01    0.6     0.05259069     -5406.3445402031 -3.11E+00
    23 Broy./Diag. 0.10E-01    0.6     0.00296632     -5409.9665461864 -3.62E+00
    24 Broy./Diag. 0.10E-01    0.6     0.07409495     -5410.6817633043 -7.15E-01
    25 Broy./Diag. 0.10E-01    0.6     0.07307408     -5408.6784188348  2.00E+00
    26 Broy./Diag. 0.10E-01    0.6     0.03246820     -5426.7341197364 -1.81E+01
    27 Broy./Diag. 0.10E-01    0.6     0.02102893     -5427.7406732686 -1.01E+00
    28 Broy./Diag. 0.10E-01    0.6     0.01042277     -5423.1098283450  4.63E+00
    29 Broy./Diag. 0.10E-01    0.6     0.01558953     -5424.9709630088 -1.86E+00
    30 Broy./Diag. 0.10E-01    0.6     0.00215690     -5425.4356683135 -4.65E-01
    31 Broy./Diag. 0.10E-01    0.6     0.00057068     -5425.3289806661  1.07E-01
    32 Broy./Diag. 0.10E-01    0.6     0.01735572     -5425.1811177541  1.48E-01
    33 Broy./Diag. 0.10E-01    0.6     0.00252390     -5424.6871794723  4.94E-01
    34 Broy./Diag. 0.10E-01    0.6     0.00393469     -5424.8147665698 -1.28E-01
    35 Broy./Diag. 0.10E-01    0.6     0.00092069     -5426.2514272774 -1.44E+00
    36 Broy./Diag. 0.10E-01    0.6     0.00038115     -5426.1437638368  1.08E-01
    37 Broy./Diag. 0.10E-01    0.6     0.00342854     -5425.7700768857  3.74E-01
    38 Broy./Diag. 0.10E-01    0.6     0.00896842     -5423.0001264640  2.77E+00
    39 Broy./Diag. 0.10E-01    0.6     0.00071597     -5418.5034901560  4.50E+00
    40 Broy./Diag. 0.10E-01    0.6     0.00106253     -5418.3016150616  2.02E-01
    41 Broy./Diag. 0.10E-01    0.6     0.00158132     -5417.9637961428  3.38E-01
    42 Broy./Diag. 0.10E-01    0.6     0.00089081     -5417.7640129090  2.00E-01
    43 Broy./Diag. 0.10E-01    0.6     0.00045037     -5417.7727747182 -8.76E-03
    44 Broy./Diag. 0.10E-01    0.6     0.00259171     -5418.0543845425 -2.82E-01
    45 Broy./Diag. 0.10E-01    0.6     0.00107863     -5417.8184623743  2.36E-01
    46 Broy./Diag. 0.10E-01    0.6     0.00034316     -5417.8365447262 -1.81E-02
    47 Broy./Diag. 0.10E-01    0.6     0.00056311     -5417.8277154535  8.83E-03
    48 Broy./Diag. 0.10E-01    0.6     0.00012271     -5417.8298226091 -2.11E-03
    49 Broy./Diag. 0.10E-01    0.6     0.00012280     -5417.8213785218  8.44E-03
    50 Broy./Diag. 0.10E-01    0.6     0.00015015     -5417.8138533126  7.53E-03
    51 Broy./Diag. 0.10E-01    0.6     0.00030949     -5417.8105865675  3.27E-03
    52 Broy./Diag. 0.10E-01    0.6     0.00011751     -5417.8136579831 -3.07E-03
    53 Broy./Diag. 0.10E-01    0.6     0.00042892     -5417.8287489804 -1.51E-02
    54 Broy./Diag. 0.10E-01    0.6     0.00033460     -5417.8323119422 -3.56E-03
    55 Broy./Diag. 0.10E-01    0.6     0.00011034     -5417.8310936090  1.22E-03
    56 Broy./Diag. 0.10E-01    0.6     0.00006220     -5417.8309564726  1.37E-04
    57 Broy./Diag. 0.10E-01    0.6     0.00011013     -5417.8308890305  6.74E-05
    58 Broy./Diag. 0.10E-01    0.6     0.00006022     -5417.8302887668  6.00E-04
    59 Broy./Diag. 0.10E-01    0.6     0.00005639     -5417.8301276594  1.61E-04
    60 Broy./Diag. 0.10E-01    0.6     0.00008473     -5417.8306680769 -5.40E-04
    61 Broy./Diag. 0.10E-01    0.6     0.00026368     -5417.8311776992 -5.10E-04
    62 Broy./Diag. 0.10E-01    0.6     0.00000850     -5417.8295129845  1.66E-03
    63 Broy./Diag. 0.10E-01    0.6     0.00001231     -5417.8293303735  1.83E-04
    64 Broy./Diag. 0.10E-01    0.6     0.00004377     -5417.8305481835 -1.22E-03
    65 Broy./Diag. 0.10E-01    0.6     0.00005266     -5417.8310107531 -4.63E-04
    66 Broy./Diag. 0.10E-01    0.6     0.00003608     -5417.8314527521 -4.42E-04
    67 Broy./Diag. 0.10E-01    0.6     0.00003021     -5417.8324239428 -9.71E-04
    68 Broy./Diag. 0.10E-01    0.6     0.00005102     -5417.8325294911 -1.06E-04
    69 Broy./Diag. 0.10E-01    0.6     0.00000132     -5417.8325758841 -4.64E-05
    70 Broy./Diag. 0.10E-01    0.6     0.00000591     -5417.8324038758  1.72E-04
    71 Broy./Diag. 0.10E-01    0.6     0.00000420     -5417.8322982069  1.06E-04
    72 Broy./Diag. 0.10E-01    0.6     0.00000588     -5417.8322900718  8.14E-06
    73 Broy./Diag. 0.10E-01    0.6     0.00000201     -5417.8322952362 -5.16E-06
    74 Broy./Diag. 0.10E-01    0.6     0.00000204     -5417.8323529835 -5.77E-05
    75 Broy./Diag. 0.10E-01    0.6     0.00000773     -5417.8323001461  5.28E-05
    76 Broy./Diag. 0.10E-01    0.6     0.00000075     -5417.8327644014 -4.64E-04
    77 Broy./Diag. 0.10E-01    0.6     0.00003816     -5417.8327024802  6.19E-05
    78 Broy./Diag. 0.10E-01    0.6     0.00000475     -5417.8327277007 -2.52E-05
    79 Broy./Diag. 0.10E-01    0.6     0.00001373     -5417.8327491741 -2.15E-05
    80 Broy./Diag. 0.10E-01    0.6     0.00000593     -5417.8327032158  4.60E-05
    81 Broy./Diag. 0.10E-01    0.6     0.00000543     -5417.8326608346  4.24E-05
    82 Broy./Diag. 0.10E-01    0.6     0.00000354     -5417.8325908477  7.00E-05
    83 Broy./Diag. 0.10E-01    0.6     0.00000530     -5417.8324535819  1.37E-04
    84 Broy./Diag. 0.10E-01    0.6     0.00000966     -5417.8322729589  1.81E-04
    85 Broy./Diag. 0.10E-01    0.6     0.00000263     -5417.8321940471  7.89E-05
    86 Broy./Diag. 0.10E-01    0.6     0.00000243     -5417.8321575479  3.65E-05
    87 Broy./Diag. 0.10E-01    0.6     0.00000211     -5417.8321548048  2.74E-06
    88 Broy./Diag. 0.10E-01    0.6     0.00000011     -5417.8321499335  4.87E-06
    89 Broy./Diag. 0.10E-01    0.6     0.00000403     -5417.8321537067 -3.77E-06
    90 Broy./Diag. 0.10E-01    0.6     0.00000306     -5417.8321586187 -4.91E-06
    91 Broy./Diag. 0.10E-01    0.6     0.00000071     -5417.8321816220 -2.30E-05
    92 Broy./Diag. 0.10E-01    0.6     0.00000104     -5417.8322064056 -2.48E-05
    93 Broy./Diag. 0.10E-01    0.6     0.00000170     -5417.8322414287 -3.50E-05
    94 Broy./Diag. 0.10E-01    0.6     0.00000219     -5417.8322470938 -5.67E-06
    95 Broy./Diag. 0.10E-01    0.6     0.00000077     -5417.8322460864  1.01E-06
    96 Broy./Diag. 0.10E-01    0.6     0.00000024     -5417.8322509670 -4.88E-06
    97 Broy./Diag. 0.10E-01    0.6     0.00000043     -5417.8322630934 -1.21E-05
    98 Broy./Diag. 0.10E-01    0.6     0.00000153     -5417.8322799701 -1.69E-05
    99 Broy./Diag. 0.10E-01    0.6     0.00000041     -5417.8322805752 -6.05E-07
   100 Broy./Diag. 0.10E-01    0.6     0.00000052     -5417.8322803541  2.21E-07
   101 Broy./Diag. 0.10E-01    0.6     0.00000072     -5417.8322809390 -5.85E-07
   102 Broy./Diag. 0.10E-01    0.6     0.00000054     -5417.8322812263 -2.87E-07
   103 Broy./Diag. 0.10E-01    0.6     0.00000029     -5417.8322803854  8.41E-07
   104 Broy./Diag. 0.10E-01    0.6     0.00000015     -5417.8322796723  7.13E-07
   105 Broy./Diag. 0.10E-01    0.6     0.00000017     -5417.8322792754  3.97E-07
   106 Broy./Diag. 0.10E-01    0.6     0.00000002     -5417.8322792727  2.67E-09
   107 Broy./Diag. 0.10E-01    0.6     0.00000044     -5417.8322781905  1.08E-06
   108 Broy./Diag. 0.10E-01    0.6     0.00000052     -5417.8322788200 -6.30E-07
   109 Broy./Diag. 0.10E-01    0.6     0.00000031     -5417.8322819078 -3.09E-06
   110 Broy./Diag. 0.10E-01    0.6     0.00000002     -5417.8322814248  4.83E-07
   111 Broy./Diag. 0.10E-01    0.6     0.00000002     -5417.8322810816  3.43E-07
   112 Broy./Diag. 0.10E-01    0.6     0.00000005     -5417.8322805417  5.40E-07
   113 Broy./Diag. 0.10E-01    0.6     0.00000002     -5417.8322798103  7.31E-07
   114 Broy./Diag. 0.10E-01    0.6     0.00000001     -5417.8322795743  2.36E-07
   115 Broy./Diag. 0.10E-01    0.6     0.00000004     -5417.8322774674  2.11E-06
   116 Broy./Diag. 0.10E-01    0.6     0.00000005     -5417.8322765922  8.75E-07
   117 Broy./Diag. 0.10E-01    0.6     0.00000002     -5417.8322765322  6.00E-08
   118 Broy./Diag. 0.10E-01    0.6     0.00000004     -5417.8322760568  4.75E-07
   119 Broy./Diag. 0.10E-01    0.6     0.00000003     -5417.8322749051  1.15E-06
   120 Broy./Diag. 0.10E-01    0.7     0.00000004     -5417.8322740586  8.46E-07
   121 Broy./Diag. 0.10E-01    0.6     0.00000003     -5417.8322738885  1.70E-07
   122 Broy./Diag. 0.10E-01    0.6     4.4222E-09     -5417.8322737419  1.47E-07

  *** SCF run converged in   122 steps ***


  Electronic density on regular grids:       -575.9999999996        0.0000000004
  Core density on regular grids:              575.9999999999       -0.0000000001
  Total charge density on r-space grids:        0.0000000002
  Total charge density g-space grids:           0.0000000002

  Overlap energy of the core charge distribution:               0.00000000000000
  Self energy of the core charge distribution:              -8356.45371746162709
  Core Hamiltonian energy:                                   2336.14558629594649
  Hartree energy:                                            1144.18255090013577
  Exchange-correlation energy:                               -541.70226816988134
  Electronic entropic energy:                                  -0.00442530702047
  Fermi energy:                                                 0.47377580814240

  Total energy:                                             -5417.83227374190210

  Integrated absolute spin density  :                              25.0633842083
  WARNING: S**2 computation does not yet treat fractional occupied orbitals

 The sum of alpha and beta density is written in cube file format to the file:

 Ni_bulk-ELECTRON_DENSITY-1_0.cube

 The spin density is written in cube file format to the file:

 Ni_bulk-SPIN_DENSITY-1_0.cube

 !-----------------------------------------------------------------------------!
                     Mulliken Population Analysis

 #  Atom  Element  Kind  Atomic population (alpha,beta) Net charge  Spin moment
       1     Ni       1         9.343562     8.656438    -0.000000     0.687124
       2     Ni       1         9.343562     8.656438     0.000000     0.687124
       3     Ni       1         9.343562     8.656438     0.000000     0.687124
       4     Ni       1         9.343562     8.656438     0.000000     0.687124
       5     Ni       1         9.343562     8.656438    -0.000000     0.687124
       6     Ni       1         9.343562     8.656438     0.000000     0.687124
       7     Ni       1         9.343562     8.656438     0.000000     0.687124
       8     Ni       1         9.343562     8.656438     0.000000     0.687124
       9     Ni       1         9.343562     8.656438    -0.000000     0.687124
      10     Ni       1         9.343562     8.656438     0.000000     0.687124
      11     Ni       1         9.343562     8.656438     0.000000     0.687124
      12     Ni       1         9.343562     8.656438     0.000000     0.687124
      13     Ni       1         9.343562     8.656438    -0.000000     0.687124
      14     Ni       1         9.343562     8.656438     0.000000     0.687124
      15     Ni       1         9.343562     8.656438     0.000000     0.687124
      16     Ni       1         9.343562     8.656438     0.000000     0.687124
      17     Ni       1         9.343562     8.656438    -0.000000     0.687124
      18     Ni       1         9.343562     8.656438     0.000000     0.687124
      19     Ni       1         9.343562     8.656438     0.000000     0.687124
      20     Ni       1         9.343562     8.656438     0.000000     0.687124
      21     Ni       1         9.343562     8.656438    -0.000000     0.687124
      22     Ni       1         9.343562     8.656438     0.000000     0.687124
      23     Ni       1         9.343562     8.656438     0.000000     0.687124
      24     Ni       1         9.343562     8.656438     0.000000     0.687124
      25     Ni       1         9.343562     8.656438    -0.000000     0.687124
      26     Ni       1         9.343562     8.656438     0.000000     0.687124
      27     Ni       1         9.343562     8.656438     0.000000     0.687124
      28     Ni       1         9.343562     8.656438     0.000000     0.687124
      29     Ni       1         9.343562     8.656438    -0.000000     0.687124
      30     Ni       1         9.343562     8.656438     0.000000     0.687124
      31     Ni       1         9.343562     8.656438     0.000000     0.687124
      32     Ni       1         9.343562     8.656438     0.000000     0.687124
 # Total charge and spin      298.993984   277.006016    -0.000000    21.987968

 !-----------------------------------------------------------------------------!

 !-----------------------------------------------------------------------------!
                           Hirshfeld Charges

  #Atom  Element  Kind  Ref Charge     Population       Spin moment  Net charge
      1       Ni     1      18.000    9.344   8.656            0.687     -0.000
      2       Ni     1      18.000    9.344   8.656            0.687      0.000
      3       Ni     1      18.000    9.344   8.656            0.687      0.000
      4       Ni     1      18.000    9.344   8.656            0.687      0.000
      5       Ni     1      18.000    9.344   8.656            0.687     -0.000
      6       Ni     1      18.000    9.344   8.656            0.687      0.000
      7       Ni     1      18.000    9.344   8.656            0.687      0.000
      8       Ni     1      18.000    9.344   8.656            0.687      0.000
      9       Ni     1      18.000    9.344   8.656            0.687     -0.000
     10       Ni     1      18.000    9.344   8.656            0.687      0.000
     11       Ni     1      18.000    9.344   8.656            0.687      0.000
     12       Ni     1      18.000    9.344   8.656            0.687      0.000
     13       Ni     1      18.000    9.344   8.656            0.687     -0.000
     14       Ni     1      18.000    9.344   8.656            0.687      0.000
     15       Ni     1      18.000    9.344   8.656            0.687      0.000
     16       Ni     1      18.000    9.344   8.656            0.687      0.000
     17       Ni     1      18.000    9.344   8.656            0.687     -0.000
     18       Ni     1      18.000    9.344   8.656            0.687      0.000
     19       Ni     1      18.000    9.344   8.656            0.687      0.000
     20       Ni     1      18.000    9.344   8.656            0.687      0.000
     21       Ni     1      18.000    9.344   8.656            0.687     -0.000
     22       Ni     1      18.000    9.344   8.656            0.687      0.000
     23       Ni     1      18.000    9.344   8.656            0.687      0.000
     24       Ni     1      18.000    9.344   8.656            0.687      0.000
     25       Ni     1      18.000    9.344   8.656            0.687     -0.000
     26       Ni     1      18.000    9.344   8.656            0.687      0.000
     27       Ni     1      18.000    9.344   8.656            0.687      0.000
     28       Ni     1      18.000    9.344   8.656            0.687      0.000
     29       Ni     1      18.000    9.344   8.656            0.687     -0.000
     30       Ni     1      18.000    9.344   8.656            0.687      0.000
     31       Ni     1      18.000    9.344   8.656            0.687      0.000
     32       Ni     1      18.000    9.344   8.656            0.687      0.000

  Total Charge                                                           -0.000
 !-----------------------------------------------------------------------------!

 ENERGY| Total FORCE_EVAL ( QS ) energy [a.u.]:            -5417.832273741902100

 -------------------------------------------------------------------------------
 -                                                                             -
 -                                DBCSR STATISTICS                             -
 -                                                                             -
 -------------------------------------------------------------------------------
 COUNTER                                    TOTAL       BLAS       SMM       ACC
 flops    26 x    26 x    32          33442725888       0.0%    100.0%      0.0%
 flops    26 x    26 x    64         111475752960       0.0%    100.0%      0.0%
 flops inhomo. stacks                           0       0.0%      0.0%      0.0%
 flops total                       144.918479E+09       0.0%    100.0%      0.0%
 flops max/rank                      1.921268E+09       0.0%    100.0%      0.0%
 matmuls inhomo. stacks                         0       0.0%      0.0%      0.0%
 matmuls total                            2061312       0.0%    100.0%      0.0%
 number of processed stacks                499712       0.0%    100.0%      0.0%
 average stack size                                     0.0       4.1       0.0
 marketing flops                   102.631899E+09
 -------------------------------------------------------------------------------
 # multiplications                            244
 max memory usage/rank             231.010304E+06
 # max total images/rank                        2
 # max 3D layers                                1
 # MPI messages exchanged                  905728
 MPI messages size (bytes):
  total size                        29.726867E+09
  min size                          13.312000E+03
  max size                          53.248000E+03
  average size                      32.820965E+03
 MPI breakdown and total messages size (bytes):
             size <=      128                   0                        0
       128 < size <=     8192                   0                        0
      8192 < size <=    32768              612928              14135853056
     32768 < size <=   131072              292800              15591014400
    131072 < size <=  4194304                   0                        0
   4194304 < size <= 16777216                   0                        0
  16777216 < size                               0                        0
 -------------------------------------------------------------------------------

 *** WARNING in dbcsr_mm.F:290 :: Using a non-square number of MPI ranks ***
 *** might lead to poor performance. Used ranks: 128 Suggested: 121 256  ***

 -------------------------------------------------------------------------------
 -                                                                             -
 -                      DBCSR MESSAGE PASSING PERFORMANCE                      -
 -                                                                             -
 -------------------------------------------------------------------------------
 ROUTINE             CALLS      AVE VOLUME [Bytes]
 MP_Bcast                3                     12.
 MP_Allreduce         1733                      8.
 MP_Alltoall          6844                  57214.
 MP_ISend            15616                  15890.
 MP_IRecv            15616                  15058.
 -------------------------------------------------------------------------------

 -------------------------------------------------------------------------------
 -                                                                             -
 -                                DBM STATISTICS                               -
 -                                                                             -
 -------------------------------------------------------------------------------
    M  x    N  x    K                                          COUNT     PERCENT
 -------------------------------------------------------------------------------

 -------------------------------------------------------------------------------
 -                                                                             -
 -                                GRID STATISTICS                              -
 -                                                                             -
 -------------------------------------------------------------------------------
 LP    KERNEL             BACKEND                              COUNT     PERCENT
 6     collocate ortho    REF                               18955776      50.07%
 6     integrate ortho    REF                               18801664      49.66%
 0     integrate general  REF                                  65536       0.17%
 0     collocate general  REF                                  36864       0.10%
 -------------------------------------------------------------------------------

 MEMORY| Estimated peak process memory [MiB]                                 222

 -------------------------------------------------------------------------------
 ----                             MULTIGRID INFO                            ----
 -------------------------------------------------------------------------------
 count for grid        1:         969696          cutoff [a.u.]          300.00
 count for grid        2:         304320          cutoff [a.u.]          100.00
 count for grid        3:         238080          cutoff [a.u.]           33.33
 count for grid        4:          65120          cutoff [a.u.]           11.11
 count for grid        5:           5120          cutoff [a.u.]            3.70
 total gridlevel count  :        1582336

 -------------------------------------------------------------------------------
 -                                                                             -
 -                         MESSAGE PASSING PERFORMANCE                         -
 -                                                                             -
 -------------------------------------------------------------------------------

 ROUTINE             CALLS      AVE VOLUME [Bytes]
 MP_Group                5
 MP_Bcast              641                 289154.
 MP_Allreduce         3449                    195.
 MP_Sync              4413
 MP_Alltoall          8086               27008238.
 MP_SendRecv        124968                   5208.
 MP_ISendRecv       123952                   5208.
 MP_Wait            148126
 MP_comm_split         244
 MP_ISend            50476                  38894.
 MP_IRecv            50720                  38718.
 MP_Recv               350                 212992.
 MP_Write_All            2                  19908.
 -------------------------------------------------------------------------------


 -------------------------------------------------------------------------------
 -                                                                             -
 -                           R E F E R E N C E S                               -
 -                                                                             -
 -------------------------------------------------------------------------------
 
 CP2K version 2023.1, the CP2K developers group (2023).
 CP2K is freely available from https://www.cp2k.org/ .

 Kuehne,Thomas D.; Iannuzzi,Marcella; Del Ben,Mauro;
 Rybkin,Vladimir V.; Seewald,Patrick; Stein,Frederick; Laino,Teodoro;
 Khaliullin,Rustam Z.; Schuett,Ole; Schiffmann,Florian; Golze,Dorothea;
 Wilhelm,Jan; Chulkov,Sergey; Bani-Hashemian,Mohammad Hossein;
 Weber,Valery; Borstnik,Urban; Taillefumier,Mathieu;
 Jakobovits,Alice Shoshana; Lazzaro,Alfio; Pabst,Hans; Mueller,Tiziano;
 Schade,Robert; Guidon,Manuel; Andermatt,Samuel; Holmberg,Nico;
 Schenter,Gregory K.; Hehn,Anna; Bussy,Augustin; Belleflamme,Fabian;
 Tabacchi,Gloria; Gloess,Andreas; Lass,Michael; Bethune,Iain;
 Mundy,Christopher J.; Plessl,Christian; Watkins,Matt;
 VandeVondele,Joost; Krack,Matthias; Hutter,Juerg. 
 The Journal of Chemical Physics, 152 (19), (2020). 
 CP2K: An electronic structure and molecular dynamics software package -
 Quickstep: Efficient and accurate electronic structure calculations.
 https://doi.org/10.1063/5.0007045

 Schuett, Ole; Messmer, Peter; Hutter, Juerg; VandeVondele, Joost. 
 Electronic Structure Calculations on Graphics Processing Units, John
 Wiley & Sons, Ltd, 173-190 (2016). 
 GPU-Accelerated Sparse Matrix-Matrix Multiplication for
 Linear Scaling Density Functional Theory.
 https://doi.org/10.1002/9781118670712.ch8

 Heinecke, A; Henry, G; Hutchinson, M; Pabst, H. 
 Proceedings of Intl. Supercomputing Conference, 981-991 (2016). 
 LIBXSMM: Accelerating Small Matrix Multiplications
 by Runtime Code Generation.
 https://doi.org/10.1109/SC.2016.83

 Borstnik, U; VandeVondele, J; Weber, V; Hutter, J. 
 PARALLEL COMPUTING, 40 (5-6), 47-58 (2014). 
 Sparse matrix multiplication: The distributed block-compressed sparse
 row library.
 https://doi.org/10.1016/j.parco.2014.03.012

 Hutter, J; Iannuzzi, M; Schiffmann, F; VandeVondele, J. 
 WIREs Comput Mol Sci., 4 (1), 15-25 (2014). 
 CP2K: atomistic simulations of condensed matter systems.
 https://doi.org/10.1002/wcms.1159

 Marek, A; Blum, V; Johanni, R; Havu, V; Lang, B; Auckenthaler, T;
 Heinecke, A; Bungartz, H; Lederer, H. 
 Journal of Physics: Condensed Matter, 26 (21), (2014). 
 The ELPA library: scalable parallel eigenvalue solutions for
 electronic structure
 theory and computational science.
 https://doi.org/10.1088/0953-8984/26/21/213201

 VandeVondele, J; Hutter, J. 
 JOURNAL OF CHEMICAL PHYSICS, 127 (11), 114105 (2007). 
 Gaussian basis sets for accurate calculations on molecular systems in
 gas and condensed phases.
 https://doi.org/10.1063/1.2770708

 Krack, M. 
 THEORETICAL CHEMISTRY ACCOUNTS, 114 (1-3), 145-152 (2005). 
 Pseudopotentials for H to Kr optimized for gradient-corrected
 exchange-correlation functionals.
 https://doi.org/10.1007/s00214-005-0655-y

 VandeVondele, J; Krack, M; Mohamed, F; Parrinello, M; Chassaing, T;
 Hutter, J. COMPUTER PHYSICS COMMUNICATIONS, 167 (2), 103-128 (2005). 
 QUICKSTEP: Fast and accurate density functional calculations using a
 mixed Gaussian and plane waves approach.
 https://doi.org/10.1016/j.cpc.2004.12.014

 Frigo, M; Johnson, SG. 
 PROCEEDINGS OF THE IEEE, 93 (2), 216-231 (2005). 
 The design and implementation of FFTW3.
 https://doi.org/10.1109/JPROC.2004.840301

 Hartwigsen, C; Goedecker, S; Hutter, J. 
 PHYSICAL REVIEW B, 58 (7), 3641-3662 (1998). 
 Relativistic separable dual-space Gaussian pseudopotentials from H to Rn.
 https://doi.org/10.1103/PhysRevB.58.3641

 Lippert, G; Hutter, J; Parrinello, M. 
 MOLECULAR PHYSICS, 92 (3), 477-487 (1997). 
 A hybrid Gaussian and plane wave density functional scheme.
 https://doi.org/10.1080/002689797170220

 Perdew, JP; Burke, K; Ernzerhof, M. 
 PHYSICAL REVIEW LETTERS, 77 (18), 3865-3868 (1996). 
 Generalized gradient approximation made simple.
 https://doi.org/10.1103/PhysRevLett.77.3865

 Goedecker, S; Teter, M; Hutter, J. 
 PHYSICAL REVIEW B, 54 (3), 1703-1710 (1996). 
 Separable dual-space Gaussian pseudopotentials.
 https://doi.org/10.1103/PhysRevB.54.1703


 -------------------------------------------------------------------------------
 -                                                                             -
 -                                T I M I N G                                  -
 -                                                                             -
 -------------------------------------------------------------------------------
 SUBROUTINE                       CALLS  ASD         SELF TIME        TOTAL TIME
                                MAXIMUM       AVERAGE  MAXIMUM  AVERAGE  MAXIMUM
 CP2K                                 1  1.0    0.108    0.111   73.845   73.846
 qs_energies                          1  2.0    0.001    0.002   73.294   73.295
 scf_env_do_scf                       1  3.0    0.001    0.002   72.078   72.084
 scf_env_do_scf_inner_loop          122  4.0    0.006    0.013   72.076   72.083
 qs_ks_update_qs_env                122  5.0    0.001    0.002   25.171   25.185
 rebuild_ks_matrix                  122  6.0    0.001    0.001   25.157   25.172
 qs_ks_build_kohn_sham_matrix       122  7.0    0.021    0.030   25.156   25.171
 qs_scf_new_mos                     122  5.0    0.003    0.004   23.619   23.657
 qs_rho_update_rho_low              123  5.0    0.002    0.002   22.141   22.148
 calculate_rho_elec                 246  6.0    0.019    0.021   22.140   22.146
 eigensolver                        244  6.0    0.024    0.034   21.599   21.611
 sum_up_and_integrate               122  8.0    0.017    0.032   21.200   21.216
 integrate_v_rspace                 244  9.0    0.007    0.010   21.182   21.201
 cp_fm_diag_elpa                    244  7.0    0.001    0.002   19.327   19.361
 cp_fm_redistribute_end             244  8.0   16.690   19.117   16.752   19.120
 cp_fm_diag_elpa_base               244  8.0    2.320   18.598    2.355   18.845
 grid_collocate_task_list           246  7.0   16.892   17.597   16.892   17.597
 grid_integrate_task_list           244 10.0   15.021   15.823   15.021   15.823
 rs_pw_transfer                    2454  9.5    0.031    0.044    7.842    8.269
 pw_transfer                       5013 10.0    0.637    0.687    5.249    5.488
 density_rs2pw                      246  7.0    0.010    0.012    4.997    5.402
 potential_pw2rs                    244 10.0    0.009    0.011    5.105    5.203
 fft_wrap_pw1pw2                   4769 11.0    0.021    0.024    4.604    4.916
 fft_wrap_pw1pw2_300               2809 12.4    0.097    0.119    3.759    3.956
 qs_vxc_create                      122  8.0    0.002    0.002    3.626    3.637
 xc_vxc_pw_create                   122  9.0    0.032    0.036    3.624    3.635
 fft3d_pb                          2809 13.4    0.896    0.981    3.191    3.456
 mp_waitany                       15808 11.5    2.536    3.258    2.536    3.258
 rs_pw_transfer_PW2RS_300           246 12.0    0.990    1.190    2.889    3.012
 rs_pw_transfer_RS2PW_300           248  9.0    0.731    1.018    2.415    2.840
 mp_alltoall_z22v                  7578 15.2    1.970    2.397    1.970    2.397
 xc_rho_set_and_dset_create         122 10.0    0.036    0.040    2.202    2.325
 cp_fm_cholesky_restore             732  7.0    2.177    2.236    2.177    2.236
 xc_pw_derive                      1464 11.0    0.004    0.005    2.004    2.179
 mp_alltoall_d11v                  3424  9.3    1.321    1.834    1.321    1.834
 rs_gather_matrices                 244 10.0    0.014    0.025    1.049    1.568
 xc_pw_divergence                   244 10.0    0.002    0.003    1.355    1.550
 -------------------------------------------------------------------------------

 The number of warnings for this run is : 3
 
 -------------------------------------------------------------------------------
  **** **** ******  **  PROGRAM ENDED AT                 2023-02-06 16:42:37.981
 ***** ** ***  *** **   PROGRAM RAN ON                                 nid003587
 **    ****   ******    PROGRAM RAN BY                                    cahart
 ***** **    ** ** **   PROGRAM PROCESS ID                                107064
  **** **  *******  **  PROGRAM STOPPED IN /mnt/lustre/a2fs-work2/work/e05/e05/c
                                           ahart/postdoc/masters/ni/archer2/bulk
                                           /optimise/multiplicity-65-magnetizati
                                           on/search/1.0E-2_4.0E-01
