 DBCSR| CPU Multiplication driver                                           XSMM (U)
 DBCSR| Multrec recursion limit                                              512 (U)
 DBCSR| Multiplication stack size                                           1000 (D)
 DBCSR| Maximum elements for images                                    UNLIMITED (U)
 DBCSR| Multiplicative factor virtual images                                   1 (U)
 DBCSR| Use multiplication densification                                       T (D)
 DBCSR| Multiplication size stacks                                             3 (U)
 DBCSR| Use memory pool for CPU allocation                                     F (U)
 DBCSR| Number of 3D layers                                               SINGLE (U)
 DBCSR| Use MPI memory allocation                                              F (U)
 DBCSR| Use RMA algorithm                                                      F (U)
 DBCSR| Use Communication thread                                               T (U)
 DBCSR| Communication thread load                                             87 (D)
 DBCSR| MPI: My process id                                                     0
 DBCSR| MPI: Number of processes                                             128
 DBCSR| OMP: Current number of threads                                         1
 DBCSR| OMP: Max number of threads                                             1
 DBCSR| Split modifier for TAS multiplication algorithm                  1.0E+00 (U)


  **** **** ******  **  PROGRAM STARTED AT               2023-02-14 15:38:21.257
 ***** ** ***  *** **   PROGRAM STARTED ON                             nid004415
 **    ****   ******    PROGRAM STARTED BY                                cahart
 ***** **    ** ** **   PROGRAM PROCESS ID                                120530
  **** **  *******  **  PROGRAM STARTED IN /mnt/lustre/a2fs-work2/work/e05/e05/c
                                           ahart/postdoc/masters/ni/archer2/slab
                                           /optimise/alpha-beta/scf_1e-4_mos-100
                                           0_temp-2000_spin-0.7-0.5_periodic-xyz
                                           /search/1.0E-2_8.0E-02

 CP2K| version string:                 CP2K version 2023.1 (Development Version)
 CP2K| source code revision number:                                  git:964cd58
 CP2K| cp2kflags: omp libint fftw3 libxc elpa parallel scalapack xsmm plumed2 mk
 CP2K|            l
 CP2K| is freely available from                            https://www.cp2k.org/
 CP2K| Program compiled at                          Mon 13 Feb 17:05:14 GMT 2023
 CP2K| Program compiled on                                                  ln01
 CP2K| Program compiled for                                              ARCHER2
 CP2K| Data directory path    /work/e05/e05/cahart/cp2k/cp2k-2023.1/cp2k-2023.1-
 CP2K| Input file name                                                  cp2k.inp

 GLOBAL| Force Environment number                                              1
 GLOBAL| Basis set file name                                        BASIS_MOLOPT
 GLOBAL| Potential file name                                      GTH_POTENTIALS
 GLOBAL| MM Potential file name                                     MM_POTENTIAL
 GLOBAL| Coordinate file name                                      __STD_INPUT__
 GLOBAL| Method name                                                        CP2K
 GLOBAL| Project name                                                    Ni_bulk
 GLOBAL| Run type                                                         ENERGY
 GLOBAL| FFT library                                                       FFTW3
 GLOBAL| Diagonalization library                                            ELPA
 GLOBAL| DGEMM library                                                      BLAS
 GLOBAL| Minimum number of eigenvectors for ELPA usage                        16
 GLOBAL| Orthonormality check for eigenvectors                          DISABLED
 GLOBAL| Matrix multiplication library                                 ScaLAPACK
 GLOBAL| All-to-all communication in single precision                          F
 GLOBAL| FFTs using library dependent lengths                                  F
 GLOBAL| Grid backend                                                       AUTO
 GLOBAL| Global print level                                               MEDIUM
 GLOBAL| MPI I/O enabled                                                       T
 GLOBAL| Total number of message passing processes                           128
 GLOBAL| Number of threads for this process                                    1
 GLOBAL| This output is from process                                           0
 GLOBAL| Stack size for threads created by OpenMP (OMP_STACKSIZE)        default
 GLOBAL| CPU model name                          AMD EPYC 7742 64-Core Processor
 GLOBAL| CPUID                                                              1002

 MEMORY| system memory details [Kb]
 MEMORY|                        rank 0           min           max       average
 MEMORY| MemTotal            263528084     263528084     263528084     263528084
 MEMORY| MemFree             238014636     238006088     238014636     238006154
 MEMORY| Buffers                 25024         25024         25024         25024
 MEMORY| Cached                1121240       1121140       1121240       1121140
 MEMORY| Slab                  1703560       1703556       1703560       1703556
 MEMORY| SReclaimable           110308        110308        110308        110308
 MEMORY| MemLikelyFree       239271208     239262560     239271208     239262627


 *** Fundamental physical constants (SI units) ***

 *** Literature: B. J. Mohr and B. N. Taylor,
 ***             CODATA recommended values of the fundamental physical
 ***             constants: 2006, Web Version 5.1
 ***             http://physics.nist.gov/constants

 Speed of light in vacuum [m/s]                             2.99792458000000E+08
 Magnetic constant or permeability of vacuum [N/A**2]       1.25663706143592E-06
 Electric constant or permittivity of vacuum [F/m]          8.85418781762039E-12
 Planck constant (h) [J*s]                                  6.62606896000000E-34
 Planck constant (h-bar) [J*s]                              1.05457162825177E-34
 Elementary charge [C]                                      1.60217648700000E-19
 Electron mass [kg]                                         9.10938215000000E-31
 Electron g factor [ ]                                     -2.00231930436220E+00
 Proton mass [kg]                                           1.67262163700000E-27
 Fine-structure constant                                    7.29735253760000E-03
 Rydberg constant [1/m]                                     1.09737315685270E+07
 Avogadro constant [1/mol]                                  6.02214179000000E+23
 Boltzmann constant [J/K]                                   1.38065040000000E-23
 Atomic mass unit [kg]                                      1.66053878200000E-27
 Bohr radius [m]                                            5.29177208590000E-11

 *** Conversion factors ***

 [u] -> [a.u.]                                              1.82288848426455E+03
 [Angstrom] -> [Bohr] = [a.u.]                              1.88972613288564E+00
 [a.u.] = [Bohr] -> [Angstrom]                              5.29177208590000E-01
 [a.u.] -> [s]                                              2.41888432650478E-17
 [a.u.] -> [fs]                                             2.41888432650478E-02
 [a.u.] -> [J]                                              4.35974393937059E-18
 [a.u.] -> [N]                                              8.23872205491840E-08
 [a.u.] -> [K]                                              3.15774647902944E+05
 [a.u.] -> [kJ/mol]                                         2.62549961709828E+03
 [a.u.] -> [kcal/mol]                                       6.27509468713739E+02
 [a.u.] -> [Pa]                                             2.94210107994716E+13
 [a.u.] -> [bar]                                            2.94210107994716E+08
 [a.u.] -> [atm]                                            2.90362800883016E+08
 [a.u.] -> [eV]                                             2.72113838565563E+01
 [a.u.] -> [Hz]                                             6.57968392072181E+15
 [a.u.] -> [1/cm] (wave numbers)                            2.19474631370540E+05
 [a.u./Bohr**2] -> [1/cm]                                   5.14048714338585E+03
 

 CELL_TOP| Volume [angstrom^3]:                                       983.249569
 CELL_TOP| Vector a [angstrom     7.012     0.000     0.000   |a| =     7.011596
 CELL_TOP| Vector b [angstrom     0.000     7.012     0.000   |b| =     7.011596
 CELL_TOP| Vector c [angstrom     0.000     0.000    20.000   |c| =    20.000000
 CELL_TOP| Angle (b,c), alpha [degree]:                                90.000000
 CELL_TOP| Angle (a,c), beta  [degree]:                                90.000000
 CELL_TOP| Angle (a,b), gamma [degree]:                                90.000000
 CELL_TOP| Numerically orthorhombic:                                         YES
 CELL_TOP| Periodicity                                                       XYZ

 GENERATE|  Preliminary Number of Bonds generated:                             0
 GENERATE|  Achieved consistency in connectivity generation.

 CELL| Volume [angstrom^3]:                                           983.249569
 CELL| Vector a [angstrom]:       7.012     0.000     0.000   |a| =     7.011596
 CELL| Vector b [angstrom]:       0.000     7.012     0.000   |b| =     7.011596
 CELL| Vector c [angstrom]:       0.000     0.000    20.000   |c| =    20.000000
 CELL| Angle (b,c), alpha [degree]:                                    90.000000
 CELL| Angle (a,c), beta  [degree]:                                    90.000000
 CELL| Angle (a,b), gamma [degree]:                                    90.000000
 CELL| Numerically orthorhombic:                                             YES
 CELL| Periodicity                                                           XYZ

 CELL_REF| Volume [angstrom^3]:                                       983.249569
 CELL_REF| Vector a [angstrom     7.012     0.000     0.000   |a| =     7.011596
 CELL_REF| Vector b [angstrom     0.000     7.012     0.000   |b| =     7.011596
 CELL_REF| Vector c [angstrom     0.000     0.000    20.000   |c| =    20.000000
 CELL_REF| Angle (b,c), alpha [degree]:                                90.000000
 CELL_REF| Angle (a,c), beta  [degree]:                                90.000000
 CELL_REF| Angle (a,b), gamma [degree]:                                90.000000
 CELL_REF| Numerically orthorhombic:                                         YES
 CELL_REF| Periodicity                                                       XYZ

 *** WARNING in cryssym.F:165 :: Symmetry library SPGLIB not available ***


 *******************************************************************************
                                    Kpoints
 *******************************************************************************
 BRILLOUIN| K-point scheme                                        Monkhorst-Pack
 BRILLOUIN| K-Point grid                                             4    4    1
 BRILLOUIN| Accuracy in Symmetry determination                      0.100000E-05
 BRILLOUIN| K-Point point group symmetrization                               OFF
 BRILLOUIN| Wavefunction type                                            COMPLEX
 BRILLOUIN| List of Kpoints [2 Pi/Bohr]                                        8
 BRILLOUIN| Number           Weight            X              Y              Z
 BRILLOUIN|     1           0.12500       -0.37500       -0.37500        0.00000
 BRILLOUIN|     2           0.12500       -0.37500       -0.12500        0.00000
 BRILLOUIN|     3           0.12500       -0.37500        0.12500        0.00000
 BRILLOUIN|     4           0.12500       -0.37500        0.37500        0.00000
 BRILLOUIN|     5           0.12500       -0.12500       -0.37500        0.00000
 BRILLOUIN|     6           0.12500       -0.12500       -0.12500        0.00000
 BRILLOUIN|     7           0.12500       -0.12500        0.12500        0.00000
 BRILLOUIN|     8           0.12500       -0.12500        0.37500        0.00000
 *******************************************************************************

 *******************************************************************************
 *******************************************************************************
 **                                                                           **
 **     #####                         ##              ##                      **
 **    ##   ##            ##          ##              ##                      **
 **   ##     ##                       ##            ######                    **
 **   ##     ##  ##   ##  ##   #####  ##  ##   ####   ##    #####    #####    **
 **   ##     ##  ##   ##  ##  ##      ## ##   ##      ##   ##   ##  ##   ##   **
 **   ##  ## ##  ##   ##  ##  ##      ####     ###    ##   ######   ######    **
 **    ##  ###   ##   ##  ##  ##      ## ##      ##   ##   ##       ##        **
 **     #######   #####   ##   #####  ##  ##  ####    ##    #####   ##        **
 **           ##                                                    ##        **
 **                                                                           **
 **                                                ... make the atoms dance   **
 **                                                                           **
 **            Copyright (C) by CP2K developers group (2000-2023)             **
 **                      J. Chem. Phys. 152, 194103 (2020)                    **
 **                                                                           **
 *******************************************************************************

 *** WARNING in qs_environment.F:1456 :: Number of electrons will be ***
 *** overwritten by NELEC_ALPHA and NELEC_BETA, multiplicity will be ***
 *** ignored.                                                        ***

 Number of electrons should be                                               576
 Sum of NELEC_ALPHA and NELEC_BETA is                                    576.000

 *** WARNING in qs_environment.F:1488 :: NELEC_ALPHA is not an integer, ***
 *** many features will not be supported.                               ***


 *** WARNING in qs_environment.F:1500 :: NELEC_BETA is not an integer, ***
 *** many features will not be supported.                              ***


 *** WARNING in qs_environment.F:1532 :: More ADDED_MOs requested for beta ***
 *** spin than available.                                                  ***


 *** WARNING in qs_environment.F:1548 :: More added MOs requested than     ***
 *** available. The full set of unoccupied MOs will be used. Use           ***
 *** 'ADDED_MOS -1' to always use all available MOs and to get rid of this ***
 *** warning.                                                              ***


 DFT| Spin unrestricted (spin-polarized) Kohn-Sham calculation               UKS
 DFT| Multiplicity                                                             1
 DFT| Number of spin states                                                    2
 DFT| Charge                                                                   0
 DFT| Self-interaction correction (SIC)                                       NO
 DFT| Cutoffs: density                                              1.000000E-10
 DFT|          gradient                                             1.000000E-10
 DFT|          tau                                                  1.000000E-10
 DFT|          cutoff_smoothing_range                               0.000000E+00
 DFT| XC density smoothing                                                  NONE
 DFT| XC derivatives                                                          PW

 FUNCTIONAL| PBE:
 FUNCTIONAL| J.P.Perdew, K.Burke, M.Ernzerhof, Phys. Rev. Letter, vol. 77, n 18,
 FUNCTIONAL|  pp. 3865-3868, (1996){spin polarized}                             

 vdW POTENTIAL|                                                   Pair Potential
 vdW POTENTIAL|          DFT-D3 (Version 3.1)
 vdW POTENTIAL|          Potential Form: S. Grimme et al, JCP 132: 154104 (2010)
 vdW POTENTIAL|          Zero Damping
 vdW POTENTIAL|          Cutoff Radius [Bohr]:                             20.00
 vdW POTENTIAL|          s6 Scaling Factor:                               1.0000
 vdW POTENTIAL|          sr6 Scaling Factor:                              1.2170
 vdW POTENTIAL|          s8 Scaling Factor:                               0.7220
 vdW POTENTIAL|          Cutoff for CN calculation:                   0.1000E-05

 QS| Method:                                                                 GPW
 QS| Density plane wave grid type                        NON-SPHERICAL FULLSPACE
 QS| Number of grid levels:                                                    5
 QS| Density cutoff [a.u.]:                                                300.0
 QS| Multi grid cutoff [a.u.]: 1) grid level                               300.0
 QS|                           2) grid level                               100.0
 QS|                           3) grid level                                33.3
 QS|                           4) grid level                                11.1
 QS|                           5) grid level                                 3.7
 QS| Grid level progression factor:                                          3.0
 QS| Relative density cutoff [a.u.]:                                        30.0
 QS| Interaction thresholds: eps_pgf_orb:                                1.0E-06
 QS|                         eps_filter_matrix:                          0.0E+00
 QS|                         eps_core_charge:                            1.0E-14
 QS|                         eps_rho_gspace:                             1.0E-12
 QS|                         eps_rho_rspace:                             1.0E-12
 QS|                         eps_gvg_rspace:                             1.0E-06
 QS|                         eps_ppl:                                    1.0E-02
 QS|                         eps_ppnl:                                   1.0E-08


 ATOMIC KIND INFORMATION

  1. Atomic kind: Ni_i                                  Number of atoms:      16

     Orbital Basis Set                                        DZVP-MOLOPT-SR-GTH

       Number of orbital shell sets:                                           1
       Number of orbital shells:                                               8
       Number of primitive Cartesian functions:                                6
       Number of Cartesian basis functions:                                   31
       Number of spherical basis functions:                                   26
       Norm type:                                                              2

       Normalised Cartesian orbitals:

                        Set   Shell   Orbital            Exponent    Coefficient

                          1       1    2s               10.077428      -0.684558
                                                         5.847736      -0.844524
                                                         2.494033       1.088856
                                                         0.988355       0.395503
                                                         0.344978       0.010224
                                                         0.099466      -0.003250

                          1       2    3s               10.077428       0.096747
                                                         5.847736       0.162504
                                                         2.494033      -0.297192
                                                         0.988355      -0.319752
                                                         0.344978       0.088318
                                                         0.099466       0.118587

                          1       3    4s               10.077428       0.036437
                                                         5.847736      -0.381480
                                                         2.494033       0.003759
                                                         0.988355      -1.048256
                                                         0.344978       0.855825
                                                         0.099466      -0.176350

                          1       4    3px              10.077428      -3.133913
                                                         5.847736       3.027656
                                                         2.494033       2.353227
                                                         0.988355       0.554184
                                                         0.344978       0.019462
                                                         0.099466      -0.000291
                          1       4    3py              10.077428      -3.133913
                                                         5.847736       3.027656
                                                         2.494033       2.353227
                                                         0.988355       0.554184
                                                         0.344978       0.019462
                                                         0.099466      -0.000291
                          1       4    3pz              10.077428      -3.133913
                                                         5.847736       3.027656
                                                         2.494033       2.353227
                                                         0.988355       0.554184
                                                         0.344978       0.019462
                                                         0.099466      -0.000291

                          1       5    4px              10.077428      -0.112729
                                                         5.847736      -0.114008
                                                         2.494033      -0.347303
                                                         0.988355      -0.110323
                                                         0.344978       0.154096
                                                         0.099466       0.058386
                          1       5    4py              10.077428      -0.112729
                                                         5.847736      -0.114008
                                                         2.494033      -0.347303
                                                         0.988355      -0.110323
                                                         0.344978       0.154096
                                                         0.099466       0.058386
                          1       5    4pz              10.077428      -0.112729
                                                         5.847736      -0.114008
                                                         2.494033      -0.347303
                                                         0.988355      -0.110323
                                                         0.344978       0.154096
                                                         0.099466       0.058386

                          1       6    4dx2             10.077428       8.232726
                                                         5.847736       9.105758
                                                         2.494033       2.849835
                                                         0.988355       0.554319
                                                         0.344978       0.067245
                                                         0.099466       0.001940
                          1       6    4dxy             10.077428      14.259500
                                                         5.847736      15.771636
                                                         2.494033       4.936060
                                                         0.988355       0.960109
                                                         0.344978       0.116472
                                                         0.099466       0.003360
                          1       6    4dxz             10.077428      14.259500
                                                         5.847736      15.771636
                                                         2.494033       4.936060
                                                         0.988355       0.960109
                                                         0.344978       0.116472
                                                         0.099466       0.003360
                          1       6    4dy2             10.077428       8.232726
                                                         5.847736       9.105758
                                                         2.494033       2.849835
                                                         0.988355       0.554319
                                                         0.344978       0.067245
                                                         0.099466       0.001940
                          1       6    4dyz             10.077428      14.259500
                                                         5.847736      15.771636
                                                         2.494033       4.936060
                                                         0.988355       0.960109
                                                         0.344978       0.116472
                                                         0.099466       0.003360
                          1       6    4dz2             10.077428       8.232726
                                                         5.847736       9.105758
                                                         2.494033       2.849835
                                                         0.988355       0.554319
                                                         0.344978       0.067245
                                                         0.099466       0.001940

                          1       7    5dx2             10.077428      -2.715373
                                                         5.847736      -4.020640
                                                         2.494033      -1.397569
                                                         0.988355      -0.076143
                                                         0.344978       0.033435
                                                         0.099466       0.026032
                          1       7    5dxy             10.077428      -4.703164
                                                         5.847736      -6.963952
                                                         2.494033      -2.420661
                                                         0.988355      -0.131883
                                                         0.344978       0.057911
                                                         0.099466       0.045088
                          1       7    5dxz             10.077428      -4.703164
                                                         5.847736      -6.963952
                                                         2.494033      -2.420661
                                                         0.988355      -0.131883
                                                         0.344978       0.057911
                                                         0.099466       0.045088
                          1       7    5dy2             10.077428      -2.715373
                                                         5.847736      -4.020640
                                                         2.494033      -1.397569
                                                         0.988355      -0.076143
                                                         0.344978       0.033435
                                                         0.099466       0.026032
                          1       7    5dyz             10.077428      -4.703164
                                                         5.847736      -6.963952
                                                         2.494033      -2.420661
                                                         0.988355      -0.131883
                                                         0.344978       0.057911
                                                         0.099466       0.045088
                          1       7    5dz2             10.077428      -2.715373
                                                         5.847736      -4.020640
                                                         2.494033      -1.397569
                                                         0.988355      -0.076143
                                                         0.344978       0.033435
                                                         0.099466       0.026032

                          1       8    5fx3             10.077428      -0.467694
                                                         5.847736       0.618100
                                                         2.494033       0.066069
                                                         0.988355       0.262898
                                                         0.344978       0.004720
                                                         0.099466       0.007748
                          1       8    5fx2y            10.077428      -1.045795
                                                         5.847736       1.382114
                                                         2.494033       0.147734
                                                         0.988355       0.587859
                                                         0.344978       0.010555
                                                         0.099466       0.017325
                          1       8    5fx2z            10.077428      -1.045795
                                                         5.847736       1.382114
                                                         2.494033       0.147734
                                                         0.988355       0.587859
                                                         0.344978       0.010555
                                                         0.099466       0.017325
                          1       8    5fxy2            10.077428      -1.045795
                                                         5.847736       1.382114
                                                         2.494033       0.147734
                                                         0.988355       0.587859
                                                         0.344978       0.010555
                                                         0.099466       0.017325
                          1       8    5fxyz            10.077428      -1.811371
                                                         5.847736       2.393892
                                                         2.494033       0.255883
                                                         0.988355       1.018201
                                                         0.344978       0.018282
                                                         0.099466       0.030008
                          1       8    5fxz2            10.077428      -1.045795
                                                         5.847736       1.382114
                                                         2.494033       0.147734
                                                         0.988355       0.587859
                                                         0.344978       0.010555
                                                         0.099466       0.017325
                          1       8    5fy3             10.077428      -0.467694
                                                         5.847736       0.618100
                                                         2.494033       0.066069
                                                         0.988355       0.262898
                                                         0.344978       0.004720
                                                         0.099466       0.007748
                          1       8    5fy2z            10.077428      -1.045795
                                                         5.847736       1.382114
                                                         2.494033       0.147734
                                                         0.988355       0.587859
                                                         0.344978       0.010555
                                                         0.099466       0.017325
                          1       8    5fyz2            10.077428      -1.045795
                                                         5.847736       1.382114
                                                         2.494033       0.147734
                                                         0.988355       0.587859
                                                         0.344978       0.010555
                                                         0.099466       0.017325
                          1       8    5fz3             10.077428      -0.467694
                                                         5.847736       0.618100
                                                         2.494033       0.066069
                                                         0.988355       0.262898
                                                         0.344978       0.004720
                                                         0.099466       0.007748

       Atomic covalent radius [Angstrom]:                                  1.150

       Atomic van der Waals radius [Angstrom]:                             1.630

     GTH Potential information for                                   GTH-PBE-q18

       Description:                       Goedecker-Teter-Hutter pseudopotential
                                           Goedecker et al., PRB 54, 1703 (1996)
                                          Hartwigsen et al., PRB 58, 3641 (1998)
                                                      Krack, TCA 114, 145 (2005)

       Gaussian exponent of the core charge distribution:               4.081633
       Electronic configuration (s p d ...):                           4   6   8

       Parameters of the local part of the GTH pseudopotential:

                          rloc        C1          C2          C3          C4
                        0.350000    2.102166    0.648484

       Parameters of the non-local part of the GTH pseudopotential:

                   l      r(l)      h(i,j,l)

                   0    0.261295    0.622658    9.970227
                                    9.970227  -12.871507
                   1    0.224253  -11.142708   12.429566
                                   12.429566  -14.706861
                   2    0.215348  -12.628146

  2. Atomic kind: Ni_b                                  Number of atoms:      16

     Orbital Basis Set                                        DZVP-MOLOPT-SR-GTH

       Number of orbital shell sets:                                           1
       Number of orbital shells:                                               8
       Number of primitive Cartesian functions:                                6
       Number of Cartesian basis functions:                                   31
       Number of spherical basis functions:                                   26
       Norm type:                                                              2

       Normalised Cartesian orbitals:

                        Set   Shell   Orbital            Exponent    Coefficient

                          1       1    2s               10.077428      -0.684558
                                                         5.847736      -0.844524
                                                         2.494033       1.088856
                                                         0.988355       0.395503
                                                         0.344978       0.010224
                                                         0.099466      -0.003250

                          1       2    3s               10.077428       0.096747
                                                         5.847736       0.162504
                                                         2.494033      -0.297192
                                                         0.988355      -0.319752
                                                         0.344978       0.088318
                                                         0.099466       0.118587

                          1       3    4s               10.077428       0.036437
                                                         5.847736      -0.381480
                                                         2.494033       0.003759
                                                         0.988355      -1.048256
                                                         0.344978       0.855825
                                                         0.099466      -0.176350

                          1       4    3px              10.077428      -3.133913
                                                         5.847736       3.027656
                                                         2.494033       2.353227
                                                         0.988355       0.554184
                                                         0.344978       0.019462
                                                         0.099466      -0.000291
                          1       4    3py              10.077428      -3.133913
                                                         5.847736       3.027656
                                                         2.494033       2.353227
                                                         0.988355       0.554184
                                                         0.344978       0.019462
                                                         0.099466      -0.000291
                          1       4    3pz              10.077428      -3.133913
                                                         5.847736       3.027656
                                                         2.494033       2.353227
                                                         0.988355       0.554184
                                                         0.344978       0.019462
                                                         0.099466      -0.000291

                          1       5    4px              10.077428      -0.112729
                                                         5.847736      -0.114008
                                                         2.494033      -0.347303
                                                         0.988355      -0.110323
                                                         0.344978       0.154096
                                                         0.099466       0.058386
                          1       5    4py              10.077428      -0.112729
                                                         5.847736      -0.114008
                                                         2.494033      -0.347303
                                                         0.988355      -0.110323
                                                         0.344978       0.154096
                                                         0.099466       0.058386
                          1       5    4pz              10.077428      -0.112729
                                                         5.847736      -0.114008
                                                         2.494033      -0.347303
                                                         0.988355      -0.110323
                                                         0.344978       0.154096
                                                         0.099466       0.058386

                          1       6    4dx2             10.077428       8.232726
                                                         5.847736       9.105758
                                                         2.494033       2.849835
                                                         0.988355       0.554319
                                                         0.344978       0.067245
                                                         0.099466       0.001940
                          1       6    4dxy             10.077428      14.259500
                                                         5.847736      15.771636
                                                         2.494033       4.936060
                                                         0.988355       0.960109
                                                         0.344978       0.116472
                                                         0.099466       0.003360
                          1       6    4dxz             10.077428      14.259500
                                                         5.847736      15.771636
                                                         2.494033       4.936060
                                                         0.988355       0.960109
                                                         0.344978       0.116472
                                                         0.099466       0.003360
                          1       6    4dy2             10.077428       8.232726
                                                         5.847736       9.105758
                                                         2.494033       2.849835
                                                         0.988355       0.554319
                                                         0.344978       0.067245
                                                         0.099466       0.001940
                          1       6    4dyz             10.077428      14.259500
                                                         5.847736      15.771636
                                                         2.494033       4.936060
                                                         0.988355       0.960109
                                                         0.344978       0.116472
                                                         0.099466       0.003360
                          1       6    4dz2             10.077428       8.232726
                                                         5.847736       9.105758
                                                         2.494033       2.849835
                                                         0.988355       0.554319
                                                         0.344978       0.067245
                                                         0.099466       0.001940

                          1       7    5dx2             10.077428      -2.715373
                                                         5.847736      -4.020640
                                                         2.494033      -1.397569
                                                         0.988355      -0.076143
                                                         0.344978       0.033435
                                                         0.099466       0.026032
                          1       7    5dxy             10.077428      -4.703164
                                                         5.847736      -6.963952
                                                         2.494033      -2.420661
                                                         0.988355      -0.131883
                                                         0.344978       0.057911
                                                         0.099466       0.045088
                          1       7    5dxz             10.077428      -4.703164
                                                         5.847736      -6.963952
                                                         2.494033      -2.420661
                                                         0.988355      -0.131883
                                                         0.344978       0.057911
                                                         0.099466       0.045088
                          1       7    5dy2             10.077428      -2.715373
                                                         5.847736      -4.020640
                                                         2.494033      -1.397569
                                                         0.988355      -0.076143
                                                         0.344978       0.033435
                                                         0.099466       0.026032
                          1       7    5dyz             10.077428      -4.703164
                                                         5.847736      -6.963952
                                                         2.494033      -2.420661
                                                         0.988355      -0.131883
                                                         0.344978       0.057911
                                                         0.099466       0.045088
                          1       7    5dz2             10.077428      -2.715373
                                                         5.847736      -4.020640
                                                         2.494033      -1.397569
                                                         0.988355      -0.076143
                                                         0.344978       0.033435
                                                         0.099466       0.026032

                          1       8    5fx3             10.077428      -0.467694
                                                         5.847736       0.618100
                                                         2.494033       0.066069
                                                         0.988355       0.262898
                                                         0.344978       0.004720
                                                         0.099466       0.007748
                          1       8    5fx2y            10.077428      -1.045795
                                                         5.847736       1.382114
                                                         2.494033       0.147734
                                                         0.988355       0.587859
                                                         0.344978       0.010555
                                                         0.099466       0.017325
                          1       8    5fx2z            10.077428      -1.045795
                                                         5.847736       1.382114
                                                         2.494033       0.147734
                                                         0.988355       0.587859
                                                         0.344978       0.010555
                                                         0.099466       0.017325
                          1       8    5fxy2            10.077428      -1.045795
                                                         5.847736       1.382114
                                                         2.494033       0.147734
                                                         0.988355       0.587859
                                                         0.344978       0.010555
                                                         0.099466       0.017325
                          1       8    5fxyz            10.077428      -1.811371
                                                         5.847736       2.393892
                                                         2.494033       0.255883
                                                         0.988355       1.018201
                                                         0.344978       0.018282
                                                         0.099466       0.030008
                          1       8    5fxz2            10.077428      -1.045795
                                                         5.847736       1.382114
                                                         2.494033       0.147734
                                                         0.988355       0.587859
                                                         0.344978       0.010555
                                                         0.099466       0.017325
                          1       8    5fy3             10.077428      -0.467694
                                                         5.847736       0.618100
                                                         2.494033       0.066069
                                                         0.988355       0.262898
                                                         0.344978       0.004720
                                                         0.099466       0.007748
                          1       8    5fy2z            10.077428      -1.045795
                                                         5.847736       1.382114
                                                         2.494033       0.147734
                                                         0.988355       0.587859
                                                         0.344978       0.010555
                                                         0.099466       0.017325
                          1       8    5fyz2            10.077428      -1.045795
                                                         5.847736       1.382114
                                                         2.494033       0.147734
                                                         0.988355       0.587859
                                                         0.344978       0.010555
                                                         0.099466       0.017325
                          1       8    5fz3             10.077428      -0.467694
                                                         5.847736       0.618100
                                                         2.494033       0.066069
                                                         0.988355       0.262898
                                                         0.344978       0.004720
                                                         0.099466       0.007748

       Atomic covalent radius [Angstrom]:                                  1.150

       Atomic van der Waals radius [Angstrom]:                             1.630

     GTH Potential information for                                   GTH-PBE-q18

       Description:                       Goedecker-Teter-Hutter pseudopotential
                                           Goedecker et al., PRB 54, 1703 (1996)
                                          Hartwigsen et al., PRB 58, 3641 (1998)
                                                      Krack, TCA 114, 145 (2005)

       Gaussian exponent of the core charge distribution:               4.081633
       Electronic configuration (s p d ...):                           4   6   8

       Parameters of the local part of the GTH pseudopotential:

                          rloc        C1          C2          C3          C4
                        0.350000    2.102166    0.648484

       Parameters of the non-local part of the GTH pseudopotential:

                   l      r(l)      h(i,j,l)

                   0    0.261295    0.622658    9.970227
                                    9.970227  -12.871507
                   1    0.224253  -11.142708   12.429566
                                   12.429566  -14.706861
                   2    0.215348  -12.628146


 MOLECULE KIND INFORMATION


 All atoms are their own molecule, skipping detailed information


 TOTAL NUMBERS AND MAXIMUM NUMBERS

  Total number of            - Atomic kinds:                                   2
                             - Atoms:                                         32
                             - Shell sets:                                    32
                             - Shells:                                       256
                             - Primitive Cartesian functions:                192
                             - Cartesian basis functions:                    992
                             - Spherical basis functions:                    832

  Maximum angular momentum of- Orbital basis functions:                        3
                             - Local part of the GTH pseudopotential:          2
                             - Non-local part of the GTH pseudopotential:      3


 MODULE QUICKSTEP: ATOMIC COORDINATES IN ANGSTROM

   Atom Kind Element         X             Y             Z       Z(eff)     Mass
      1    1 Ni   28      0.876298      0.876298      7.370500  18.0000  58.6934
      2    1 Ni   28      0.876298      4.382298      7.370500  18.0000  58.6934
      3    1 Ni   28      2.629298      2.629298      7.370500  18.0000  58.6934
      4    1 Ni   28      2.629298      6.135298      7.370500  18.0000  58.6934
      5    1 Ni   28      4.382298      0.876298      7.370500  18.0000  58.6934
      6    1 Ni   28      4.382298      4.382298      7.370500  18.0000  58.6934
      7    1 Ni   28      6.135298      2.629298      7.370500  18.0000  58.6934
      8    1 Ni   28      6.135298      6.135298      7.370500  18.0000  58.6934
      9    2 Ni   28      0.876298      2.629298      9.123500  18.0000  58.6934
     10    2 Ni   28      0.876298      6.135298      9.123500  18.0000  58.6934
     11    2 Ni   28      2.629298      0.876298      9.123500  18.0000  58.6934
     12    2 Ni   28      2.629298      4.382298      9.123500  18.0000  58.6934
     13    2 Ni   28      4.382298      2.629298      9.123500  18.0000  58.6934
     14    2 Ni   28      4.382298      6.135298      9.123500  18.0000  58.6934
     15    2 Ni   28      6.135298      0.876298      9.123500  18.0000  58.6934
     16    2 Ni   28      6.135298      4.382298      9.123500  18.0000  58.6934
     17    2 Ni   28      0.876298      0.876298     10.876500  18.0000  58.6934
     18    2 Ni   28      0.876298      4.382298     10.876500  18.0000  58.6934
     19    2 Ni   28      2.629298      2.629298     10.876500  18.0000  58.6934
     20    2 Ni   28      2.629298      6.135298     10.876500  18.0000  58.6934
     21    2 Ni   28      4.382298      0.876298     10.876500  18.0000  58.6934
     22    2 Ni   28      4.382298      4.382298     10.876500  18.0000  58.6934
     23    2 Ni   28      6.135298      2.629298     10.876500  18.0000  58.6934
     24    2 Ni   28      6.135298      6.135298     10.876500  18.0000  58.6934
     25    1 Ni   28      0.876298      2.629298     12.629500  18.0000  58.6934
     26    1 Ni   28      0.876298      6.135298     12.629500  18.0000  58.6934
     27    1 Ni   28      2.629298      0.876298     12.629500  18.0000  58.6934
     28    1 Ni   28      2.629298      4.382298     12.629500  18.0000  58.6934
     29    1 Ni   28      4.382298      2.629298     12.629500  18.0000  58.6934
     30    1 Ni   28      4.382298      6.135298     12.629500  18.0000  58.6934
     31    1 Ni   28      6.135298      0.876298     12.629500  18.0000  58.6934
     32    1 Ni   28      6.135298      4.382298     12.629500  18.0000  58.6934



 SCF PARAMETERS         Density guess:                                    ATOMIC
                        --------------------------------------------------------
                        max_scf:                                             500
                        max_scf_history:                                       0
                        max_diis:                                              4
                        --------------------------------------------------------
                        eps_scf:                                        1.00E-04
                        eps_scf_history:                                0.00E+00
                        eps_diis:                                       1.00E-01
                        eps_eigval:                                     1.00E-05
                        --------------------------------------------------------
                        level_shift [a.u.]:                             0.000000
                        added MOs                                       534  553
                        --------------------------------------------------------
                        Mixing method:                            BROYDEN_MIXING
                                                charge density mixing in g-space
                        --------------------------------------------------------
                        Smear method:                                FERMI_DIRAC
                        Electronic temperature [K]:                       2000.0
                        Electronic temperature [a.u.]:                  6.33E-03
                        Accuracy threshold:                             1.00E-10
                        --------------------------------------------------------
                        No outer SCF

 PW_GRID| Information for grid number                                          1
 PW_GRID| Grid distributed over                                   128 processors
 PW_GRID| Real space group dimensions                                     8   16
 PW_GRID| the grid is blocked:                                               YES
 PW_GRID| Cutoff [a.u.]                                                    300.0
 PW_GRID| spherical cutoff:                                                   NO
 PW_GRID|   Bounds   1            -54      53                Points:         108
 PW_GRID|   Bounds   2            -54      53                Points:         108
 PW_GRID|   Bounds   3           -150     149                Points:         300
 PW_GRID| Volume element (a.u.^3)  0.1896E-02     Volume (a.u.^3)      6635.2971
 PW_GRID| Grid span                                                    FULLSPACE
 PW_GRID|   Distribution                         Average         Max         Min
 PW_GRID|   G-Vectors                            27337.5       28728       25272
 PW_GRID|   G-Rays                                 253.1         266         234
 PW_GRID|   Real Space Points                    27337.5       28728       25272

 PW_GRID| Information for grid number                                          2
 PW_GRID| Number of the reference grid                                         1
 PW_GRID| Grid distributed over                                   128 processors
 PW_GRID| Real space group dimensions                                     8   16
 PW_GRID| the grid is blocked:                                                NO
 PW_GRID| Cutoff [a.u.]                                                    100.0
 PW_GRID| spherical cutoff:                                                   NO
 PW_GRID|   Bounds   1            -30      29                Points:          60
 PW_GRID|   Bounds   2            -30      29                Points:          60
 PW_GRID|   Bounds   3            -90      89                Points:         180
 PW_GRID| Volume element (a.u.^3)  0.1024E-01     Volume (a.u.^3)      6635.2971
 PW_GRID| Grid span                                                    FULLSPACE
 PW_GRID|   Distribution                         Average         Max         Min
 PW_GRID|   G-Vectors                             5062.5       15960           0
 PW_GRID|   G-Rays                                  84.4         266           0
 PW_GRID|   Real Space Points                     5062.5        5760        3780

 PW_GRID| Information for grid number                                          3
 PW_GRID| Number of the reference grid                                         1
 PW_GRID| Grid distributed over                                   128 processors
 PW_GRID| Real space group dimensions                                     8   16
 PW_GRID| the grid is blocked:                                                NO
 PW_GRID| Cutoff [a.u.]                                                     33.3
 PW_GRID| spherical cutoff:                                                   NO
 PW_GRID|   Bounds   1            -18      17                Points:          36
 PW_GRID|   Bounds   2            -18      17                Points:          36
 PW_GRID|   Bounds   3            -50      49                Points:         100
 PW_GRID| Volume element (a.u.^3)  0.5120E-01     Volume (a.u.^3)      6635.2971
 PW_GRID| Grid span                                                    FULLSPACE
 PW_GRID|   Distribution                         Average         Max         Min
 PW_GRID|   G-Vectors                             1012.5        9576           0
 PW_GRID|   G-Rays                                  28.1         266           0
 PW_GRID|   Real Space Points                     1012.5        1500         800

 PW_GRID| Information for grid number                                          4
 PW_GRID| Number of the reference grid                                         1
 PW_GRID| Grid distributed over                                   128 processors
 PW_GRID| Real space group dimensions                                     8   16
 PW_GRID| the grid is blocked:                                                NO
 PW_GRID| Cutoff [a.u.]                                                     11.1
 PW_GRID| spherical cutoff:                                                   NO
 PW_GRID|   Bounds   1            -10       9                Points:          20
 PW_GRID|   Bounds   2            -10       9                Points:          20
 PW_GRID|   Bounds   3            -30      29                Points:          60
 PW_GRID| Volume element (a.u.^3)  0.2765         Volume (a.u.^3)      6635.2971
 PW_GRID| Grid span                                                    FULLSPACE
 PW_GRID|   Distribution                         Average         Max         Min
 PW_GRID|   G-Vectors                              187.5        3800           0
 PW_GRID|   G-Rays                                   9.4         190           0
 PW_GRID|   Real Space Points                      187.5         360         120

 PW_GRID| Information for grid number                                          5
 PW_GRID| Number of the reference grid                                         1
 PW_GRID| Grid distributed over                                   128 processors
 PW_GRID| Real space group dimensions                                     8   16
 PW_GRID| the grid is blocked:                                                NO
 PW_GRID| Cutoff [a.u.]                                                      3.7
 PW_GRID| spherical cutoff:                                                   NO
 PW_GRID|   Bounds   1             -6       5                Points:          12
 PW_GRID|   Bounds   2             -6       5                Points:          12
 PW_GRID|   Bounds   3            -18      17                Points:          36
 PW_GRID| Volume element (a.u.^3)   1.280         Volume (a.u.^3)      6635.2971
 PW_GRID| Grid span                                                    FULLSPACE
 PW_GRID|   Distribution                         Average         Max         Min
 PW_GRID|   G-Vectors                               40.5        1296           0
 PW_GRID|   G-Rays                                   3.4         108           0
 PW_GRID|   Real Space Points                       40.5          72           0

 POISSON| Solver                                                        PERIODIC
 POISSON| Periodicity                                                        XYZ

 RS_GRID| Information for grid number                                          1
 RS_GRID|   Bounds   1            -54      53                Points:         108
 RS_GRID|   Bounds   2            -54      53                Points:         108
 RS_GRID|   Bounds   3           -150     149                Points:         300
 RS_GRID| Real space distribution over                                  8 groups
 RS_GRID| Real space distribution along direction                              2
 RS_GRID| Border size                                                         28
 RS_GRID| Real space distribution over                                 16 groups
 RS_GRID| Real space distribution along direction                              3
 RS_GRID| Border size                                                         28
 RS_GRID|   Distribution                         Average         Max         Min
 RS_GRID|   Planes                                  69.5          70          69
 RS_GRID|   Distribution                         Average         Max         Min
 RS_GRID|   Planes                                  74.8          75          74

 RS_GRID| Information for grid number                                          2
 RS_GRID|   Bounds   1            -30      29                Points:          60
 RS_GRID|   Bounds   2            -30      29                Points:          60
 RS_GRID|   Bounds   3            -90      89                Points:         180
 RS_GRID| Real space fully replicated
 RS_GRID| Group size                                                           1

 RS_GRID| Information for grid number                                          3
 RS_GRID|   Bounds   1            -18      17                Points:          36
 RS_GRID|   Bounds   2            -18      17                Points:          36
 RS_GRID|   Bounds   3            -50      49                Points:         100
 RS_GRID| Real space fully replicated
 RS_GRID| Group size                                                           1

 RS_GRID| Information for grid number                                          4
 RS_GRID|   Bounds   1            -10       9                Points:          20
 RS_GRID|   Bounds   2            -10       9                Points:          20
 RS_GRID|   Bounds   3            -30      29                Points:          60
 RS_GRID| Real space fully replicated
 RS_GRID| Group size                                                           1

 RS_GRID| Information for grid number                                          5
 RS_GRID|   Bounds   1             -6       5                Points:          12
 RS_GRID|   Bounds   2             -6       5                Points:          12
 RS_GRID|   Bounds   3            -18      17                Points:          36
 RS_GRID| Real space fully replicated
 RS_GRID| Group size                                                           1

 Spin 1

 Number of electrons:                                                        297.600
 Number of occupied orbitals:                                                298
 Number of molecular orbitals:                                               832

 Spin 2

 Number of electrons:                                                        278.400
 Number of occupied orbitals:                                                279
 Number of molecular orbitals:                                               832

 Number of orbital functions:                                                832
 Number of independent orbital functions:                                    832

 Extrapolation method: initial_guess

 Atomic guess: The first density matrix is obtained in terms of atomic orbitals
               and electronic configurations assigned to each atomic kind

 Guess for atomic kind: Ni_i

 Electronic structure
    Total number of core electrons                                         10.00
    Total number of valence electrons                                      18.00
    Total number of electrons                                              28.00
    Multiplicity                                                         doublet
    Alpha Electrons
    S   [  1.00  1.00] 1.00  1.00
    P   [  3.00] 3.00
    D      4.35
    Beta Electrons
    S   [  1.00  1.00] 1.00  1.00
    P   [  3.00] 3.00
    D      3.65


 *******************************************************************************
                  Iteration          Convergence                     Energy [au]
 *******************************************************************************
                          1         1.51729                    -167.067424631347
                          2         15.3902                    -156.642654318634
                          3         2.33433                    -168.319355313541
                          4        0.206730                    -168.609905008081
                          5        0.814175E-01                -168.612873080494
                          6        0.173318E-01                -168.613470181066
                          7        0.290432E-02                -168.613543571401
                          8        0.311825E-02                -168.613543401474
                          9        0.179670E-03                -168.613544404477
                         10        0.169386E-02                -168.613544207811
                         11        0.473341E-03                -168.613544360253
                         12        0.165417E-03                -168.613544400419
                         13        0.162622E-03                -168.613544401489
                         14        0.158325E-03                -168.613544403900
                         15        0.177007E-03                -168.613544402509
                         16        0.138916E-03                -168.613544404900
                         17        0.934549E-04                -168.613544406149
                         18        0.119916E-03                -168.613544405789
                         19        0.131607E-03                -168.613544405591
                         20        0.169309E-03                -168.613544404773
                         21        0.551337E-04                -168.613544406656
                         22        0.382664E-04                -168.613544406759
                         23        0.378942E-04                -168.613544406765
                         24        0.381089E-04                -168.613544406765
                         25        0.390835E-04                -168.613544406759
                         26        0.308614E-04                -168.613544406841
                         27        0.205044E-04                -168.613544406892
                         28        0.200942E-04                -168.613544406893
                         29        0.199375E-04                -168.613544406893
                         30        0.200198E-04                -168.613544406894
                         31        0.161325E-04                -168.613544406903
                         32        0.330614E-05                -168.613544406925
                         33        0.238713E-05                -168.613544406926
                         34        0.265439E-05                -168.613544406926
                         35        0.277073E-05                -168.613544406926
                         36        0.335175E-05                -168.613544406926
                         37        0.148809E-05                -168.613544406927
                         38        0.133447E-05                -168.613544406927
                         39        0.918735E-06                -168.613544406927

 Energy components [Hartree]           Total Energy ::         -168.613544406927
                                        Band Energy ::          -26.569761966525
                                     Kinetic Energy ::           97.306723392622
                                   Potential Energy ::         -265.920267799548
                                      Virial (-V/T) ::            2.732804666812
                                        Core Energy ::         -299.567979157577
                                          XC Energy ::          -16.227189041387
                                     Coulomb Energy ::          147.181623792037
                       Total Pseudopotential Energy ::         -396.961043505191
                       Local Pseudopotential Energy ::         -362.648291121960
                    Nonlocal Pseudopotential Energy ::          -34.312752383230
                                        Confinement ::            0.863409549921

 Orbital energies  State     Spin  L     Occupation   Energy[a.u.]    Energy[eV]

                       1    alpha  0          1.000      -4.172666   -113.544030
                       2    alpha  0          1.000      -0.181431     -4.936983
                       1     beta  0          1.000      -4.140640   -112.672541
                       2     beta  0          1.000      -0.176372     -4.799339

                       1    alpha  1          3.000      -2.578739    -70.171064
                       1     beta  1          3.000      -2.547579    -69.323162

                       1    alpha  2          4.350      -0.327039     -8.899191
                       1     beta  2          3.650      -0.300569     -8.178887


 Total Electron Density at R=0:                                         0.030422

 Guess for atomic kind: Ni_b

 Electronic structure
    Total number of core electrons                                         10.00
    Total number of valence electrons                                      18.00
    Total number of electrons                                              28.00
    Multiplicity                                                         doublet
    Alpha Electrons
    S   [  1.00  1.00] 1.00  1.00
    P   [  3.00] 3.00
    D      4.25
    Beta Electrons
    S   [  1.00  1.00] 1.00  1.00
    P   [  3.00] 3.00
    D      3.75


 *******************************************************************************
                  Iteration          Convergence                     Energy [au]
 *******************************************************************************
                          1         1.51687                    -167.065012761055
                          2         14.9817                    -156.620431300845
                          3         2.25575                    -168.317311438693
                          4        0.189210                    -168.607926092750
                          5        0.708658E-01                -168.610773319290
                          6        0.122256E-01                -168.611238205502
                          7        0.598421E-02                -168.611272268995
                          8        0.528277E-02                -168.611272438110
                          9        0.104644E-02                -168.611275321653
                         10        0.260234E-02                -168.611274926630
                         11        0.975322E-03                -168.611275328217
                         12        0.161067E-03                -168.611275447773
                         13        0.147413E-03                -168.611275446839
                         14        0.115114E-03                -168.611275449434
                         15        0.167217E-03                -168.611275445436
                         16        0.255374E-04                -168.611275450531
                         17        0.418369E-04                -168.611275450414
                         18        0.393709E-04                -168.611275450477
                         19        0.239931E-04                -168.611275450542
                         20        0.173885E-04                -168.611275450557
                         21        0.851368E-05                -168.611275450578
                         22        0.849928E-05                -168.611275450580
                         23        0.544937E-05                -168.611275450584
                         24        0.540003E-05                -168.611275450586
                         25        0.613371E-05                -168.611275450584
                         26        0.311593E-06                -168.611275450588

 Energy components [Hartree]           Total Energy ::         -168.611275450588
                                        Band Energy ::          -26.568680144499
                                     Kinetic Energy ::           97.303659243130
                                   Potential Energy ::         -265.914934693718
                                      Virial (-V/T) ::            2.732835915546
                                        Core Energy ::         -299.566189183323
                                          XC Energy ::          -16.224592878785
                                     Coulomb Energy ::          147.179506611520
                       Total Pseudopotential Energy ::         -396.956189041778
                       Local Pseudopotential Energy ::         -362.645043136649
                    Nonlocal Pseudopotential Energy ::          -34.311145905129
                                        Confinement ::            0.863406153250

 Orbital energies  State     Spin  L     Occupation   Energy[a.u.]    Energy[eV]

                       1    alpha  0          1.000      -4.168335   -113.426177
                       2    alpha  0          1.000      -0.180730     -4.917906
                       1     beta  0          1.000      -4.145459   -112.803683
                       2     beta  0          1.000      -0.177117     -4.819606

                       1    alpha  1          3.000      -2.574525    -70.056390
                       1     beta  1          3.000      -2.552268    -69.450746

                       1    alpha  2          4.250      -0.323446     -8.801405
                       1     beta  2          3.750      -0.304537     -8.286881


 Total Electron Density at R=0:                                         0.030429

 Spin 1
 Re-scaling the density matrix to get the right number of electrons for spin 1
                  # Electrons              Trace(P)               Scaling factor
                        297.600             297.600                        1.000

 Spin 2
 Re-scaling the density matrix to get the right number of electrons for spin 2
                  # Electrons              Trace(P)               Scaling factor
                        278.400             278.400                        1.000


 SCF WAVEFUNCTION OPTIMIZATION

  Step     Update method      Time    Convergence         Total energy    Change
  ------------------------------------------------------------------------------
     1 NoMix/Diag. 0.10E-01    1.7     0.87318318     -5426.4441344177 -5.43E+03
     2 Broy./Diag. 0.10E-01    1.5     0.01141126     -5311.9243321036  1.15E+02
[...]
   125 Broy./Diag. 0.10E-01    1.5     0.03336861     -5419.0541941271 -8.91E-01
   126 Broy./Diag. 0.10E-01    1.5     0.02789510     -5418.7381608323  3.16E-01
   127 Broy./Diag. 0.10E-01    1.5     0.15854921     -5418.6333526269  1.05E-01
   128 Broy./Diag. 0.10E-01    1.5     0.15937005     -5419.0615033543 -4.28E-01
   129 Broy./Diag. 0.10E-01    1.5     0.03903425     -5418.5770103448  4.84E-01
   130 Broy./Diag. 0.10E-01    1.5     0.06447408     -5418.6101902256 -3.32E-02
   131 Broy./Diag. 0.10E-01    1.5     0.00714020     -5418.1264030663  4.84E-01
   132 Broy./Diag. 0.10E-01    1.5     0.01632589     -5418.3122333479 -1.86E-01
   133 Broy./Diag. 0.10E-01    1.5     0.01916793     -5418.6730781693 -3.61E-01
   134 Broy./Diag. 0.10E-01    1.5     0.00451132     -5418.2903208710  3.83E-01
   135 Broy./Diag. 0.10E-01    1.5     0.01951675     -5418.6095952082 -3.19E-01
   136 Broy./Diag. 0.10E-01    1.5     0.01047420     -5419.2755696516 -6.66E-01
   137 Broy./Diag. 0.10E-01    1.5     0.03301640     -5419.4853686802 -2.10E-01
   138 Broy./Diag. 0.10E-01    1.5     0.02959871     -5419.5830827266 -9.77E-02
   139 Broy./Diag. 0.10E-01    1.5     0.03443180     -5419.5133931273  6.97E-02
   140 Broy./Diag. 0.10E-01    1.5     0.04106574     -5418.6166400287  8.97E-01
   141 Broy./Diag. 0.10E-01    1.5     0.05189839     -5418.1386733149  4.78E-01
   142 Broy./Diag. 0.10E-01    1.5     0.00743696     -5418.4264793363 -2.88E-01
   143 Broy./Diag. 0.10E-01    1.5     0.00549411     -5418.6394642901 -2.13E-01
   144 Broy./Diag. 0.10E-01    1.5     0.01495839     -5418.8299476548 -1.90E-01
   145 Broy./Diag. 0.10E-01    1.5     0.02271183     -5418.6451935295  1.85E-01
   146 Broy./Diag. 0.10E-01    1.5     0.06939418     -5419.4521504005 -8.07E-01
   147 Broy./Diag. 0.10E-01    1.5     0.08729843     -5419.2803062174  1.72E-01
   148 Broy./Diag. 0.10E-01    1.5     0.01730082     -5419.3018429995 -2.15E-02
   149 Broy./Diag. 0.10E-01    1.5     0.00874009     -5418.9545095959  3.47E-01
   150 Broy./Diag. 0.10E-01    1.5     0.03199194     -5418.9509723591  3.54E-03
   151 Broy./Diag. 0.10E-01    1.5     0.02539939     -5419.0579662123 -1.07E-01
   152 Broy./Diag. 0.10E-01    1.5     0.03940992     -5418.8659359747  1.92E-01
   153 Broy./Diag. 0.10E-01    1.5     0.00513354     -5418.9840093707 -1.18E-01
   154 Broy./Diag. 0.10E-01    1.5     0.01950450     -5418.9209799627  6.30E-02
   155 Broy./Diag. 0.10E-01    1.5     0.01428355     -5419.1862321424 -2.65E-01
   156 Broy./Diag. 0.10E-01    1.5     0.06538196     -5418.9726420649  2.14E-01
   157 Broy./Diag. 0.10E-01    1.5     0.04677191     -5419.1952090508 -2.23E-01
   158 Broy./Diag. 0.10E-01    1.5     0.01616240     -5418.4636038026  7.32E-01
   159 Broy./Diag. 0.10E-01    1.5     0.08192139     -5418.6742924818 -2.11E-01
   160 Broy./Diag. 0.10E-01    1.5     0.07735880     -5418.0487564315  6.26E-01
   161 Broy./Diag. 0.10E-01    1.5     0.01903555     -5418.0482993946  4.57E-04
   162 Broy./Diag. 0.10E-01    1.5     0.03587562     -5417.4801714819  5.68E-01
   163 Broy./Diag. 0.10E-01    1.5     0.00995895     -5417.2078746233  2.72E-01
   164 Broy./Diag. 0.10E-01    1.5     0.02134564     -5417.5499608025 -3.42E-01
   165 Broy./Diag. 0.10E-01    1.5     0.03675009     -5418.1140751642 -5.64E-01
   166 Broy./Diag. 0.10E-01    1.5     0.06752418     -5417.8764554150  2.38E-01
   167 Broy./Diag. 0.10E-01    1.5     0.03583254     -5418.3116073964 -4.35E-01
   168 Broy./Diag. 0.10E-01    1.5     0.03039097     -5418.5160742817 -2.04E-01
   169 Broy./Diag. 0.10E-01    1.5     0.09336741     -5418.4494170316  6.67E-02
   170 Broy./Diag. 0.10E-01    1.5     0.07686256     -5418.5588663303 -1.09E-01
   171 Broy./Diag. 0.10E-01    1.5     0.01434342     -5418.0632972204  4.96E-01
   172 Broy./Diag. 0.10E-01    1.5     0.01154441     -5418.0810107731 -1.77E-02
   173 Broy./Diag. 0.10E-01    1.5     0.04592825     -5418.1110550841 -3.00E-02
   174 Broy./Diag. 0.10E-01    1.5     0.04821250     -5418.4750206814 -3.64E-01
   175 Broy./Diag. 0.10E-01    1.5     0.04588448     -5418.2732356658  2.02E-01
   176 Broy./Diag. 0.10E-01    1.5     0.03791439     -5418.6762171119 -4.03E-01
   177 Broy./Diag. 0.10E-01    1.5     0.05901749     -5418.3950186510  2.81E-01
   178 Broy./Diag. 0.10E-01    1.5     0.00328484     -5418.2935005265  1.02E-01
   179 Broy./Diag. 0.10E-01    1.5     0.00133576     -5418.3660220008 -7.25E-02
   180 Broy./Diag. 0.10E-01    1.5     0.00966216     -5418.4157774607 -4.98E-02
   181 Broy./Diag. 0.10E-01    1.5     0.00344519     -5418.7374920461 -3.22E-01
   182 Broy./Diag. 0.10E-01    1.5     0.01784715     -5418.3006443098  4.37E-01
   183 Broy./Diag. 0.10E-01    1.5     0.01256581     -5418.4653965867 -1.65E-01
   184 Broy./Diag. 0.10E-01    1.5     0.03243079     -5418.7275194760 -2.62E-01
   185 Broy./Diag. 0.10E-01    1.5     0.05273914     -5418.3834357740  3.44E-01
   186 Broy./Diag. 0.10E-01    1.5     0.06420559     -5418.7238180223 -3.40E-01
   187 Broy./Diag. 0.10E-01    1.5     0.00851063     -5418.8539435999 -1.30E-01
   188 Broy./Diag. 0.10E-01    1.5     0.00582763     -5418.7624081404  9.15E-02
   189 Broy./Diag. 0.10E-01    1.5     0.00416976     -5418.9707153902 -2.08E-01
   190 Broy./Diag. 0.10E-01    1.5     0.01254228     -5419.2003570747 -2.30E-01
   191 Broy./Diag. 0.10E-01    1.5     0.00650454     -5419.7763161852 -5.76E-01
   192 Broy./Diag. 0.10E-01    1.5     0.01434243     -5419.7877864704 -1.15E-02
   193 Broy./Diag. 0.10E-01    1.5     0.02851286     -5419.8562872549 -6.85E-02
   194 Broy./Diag. 0.10E-01    1.5     0.02407666     -5420.0957014396 -2.39E-01
   195 Broy./Diag. 0.10E-01    1.5     0.03951250     -5419.9429901091  1.53E-01
   196 Broy./Diag. 0.10E-01    1.5     0.02421762     -5420.1268416795 -1.84E-01
   197 Broy./Diag. 0.10E-01    1.5     0.01447658     -5420.0182873473  1.09E-01
   198 Broy./Diag. 0.10E-01    1.5     0.02274235     -5419.2475022028  7.71E-01
   199 Broy./Diag. 0.10E-01    1.5     0.04576338     -5419.5648292734 -3.17E-01
   200 Broy./Diag. 0.10E-01    1.5     0.00816027     -5419.8082562534 -2.43E-01
   201 Broy./Diag. 0.10E-01    1.5     0.01042161     -5419.1840253830  6.24E-01
   202 Broy./Diag. 0.10E-01    1.5     0.00556500     -5418.7710773155  4.13E-01
   203 Broy./Diag. 0.10E-01    1.5     0.00286707     -5419.0976084741 -3.27E-01
   204 Broy./Diag. 0.10E-01    1.5     0.00260688     -5419.1148257200 -1.72E-02
   205 Broy./Diag. 0.10E-01    1.5     0.01635888     -5418.8141888040  3.01E-01
   206 Broy./Diag. 0.10E-01    1.5     0.01182267     -5418.0394459451  7.75E-01
   207 Broy./Diag. 0.10E-01    1.5     0.02094345     -5418.0232101841  1.62E-02
   208 Broy./Diag. 0.10E-01    1.5     0.02011789     -5417.8157906441  2.07E-01
   209 Broy./Diag. 0.10E-01    1.5     0.00457566     -5417.8736881640 -5.79E-02
   210 Broy./Diag. 0.10E-01    1.5     0.00902708     -5418.0758001237 -2.02E-01
   211 Broy./Diag. 0.10E-01    1.5     0.00468483     -5418.5647300071 -4.89E-01
   212 Broy./Diag. 0.10E-01    1.5     0.00905348     -5418.4018636233  1.63E-01
   213 Broy./Diag. 0.10E-01    1.5     0.00590915     -5418.6509378580 -2.49E-01
   214 Broy./Diag. 0.10E-01    1.5     0.01669042     -5418.9094597621 -2.59E-01
   215 Broy./Diag. 0.10E-01    1.5     0.00505789     -5418.9354207014 -2.60E-02
   216 Broy./Diag. 0.10E-01    1.5     0.02134622     -5418.9337966867  1.62E-03
   217 Broy./Diag. 0.10E-01    1.5     0.00751053     -5419.2343288922 -3.01E-01
   218 Broy./Diag. 0.10E-01    1.5     0.02822380     -5419.5584402658 -3.24E-01
   219 Broy./Diag. 0.10E-01    1.5     0.00571980     -5418.2558898333  1.30E+00
   220 Broy./Diag. 0.10E-01    1.5     0.01568653     -5417.9435132746  3.12E-01
   221 Broy./Diag. 0.10E-01    1.5     0.00709109     -5417.8205920176  1.23E-01
   222 Broy./Diag. 0.10E-01    1.5     0.03510025     -5418.2140928947 -3.94E-01
   223 Broy./Diag. 0.10E-01    1.5     0.01422898     -5418.5283117821 -3.14E-01
   224 Broy./Diag. 0.10E-01    1.5     0.00724074     -5418.5843991148 -5.61E-02
   225 Broy./Diag. 0.10E-01    1.5     0.00471080     -5418.7758559226 -1.91E-01
   226 Broy./Diag. 0.10E-01    1.5     0.00723434     -5418.6138882995  1.62E-01
   227 Broy./Diag. 0.10E-01    1.5     0.01069172     -5418.7376857257 -1.24E-01
   228 Broy./Diag. 0.10E-01    1.5     0.05592616     -5419.0487444196 -3.11E-01
   229 Broy./Diag. 0.10E-01    1.5     0.02749895     -5418.8208483356  2.28E-01
   230 Broy./Diag. 0.10E-01    1.5     0.03507216     -5418.2358157024  5.85E-01
   231 Broy./Diag. 0.10E-01    1.5     0.01662353     -5418.3589660225 -1.23E-01
   232 Broy./Diag. 0.10E-01    1.5     0.01283079     -5418.6041723958 -2.45E-01
   233 Broy./Diag. 0.10E-01    1.5     0.01373321     -5418.3252469768  2.79E-01
   234 Broy./Diag. 0.10E-01    1.5     0.00911516     -5418.0351604770  2.90E-01
   235 Broy./Diag. 0.10E-01    1.5     0.00997941     -5417.9809050410  5.43E-02
   236 Broy./Diag. 0.10E-01    1.5     0.00889293     -5418.2372256199 -2.56E-01
   237 Broy./Diag. 0.10E-01    1.5     0.02971779     -5418.0810629772  1.56E-01
   238 Broy./Diag. 0.10E-01    1.5     0.02788528     -5418.1709282436 -8.99E-02
   239 Broy./Diag. 0.10E-01    1.5     0.02273000     -5417.5517833395  6.19E-01
   240 Broy./Diag. 0.10E-01    1.5     0.02752929     -5417.8012352797 -2.49E-01
   241 Broy./Diag. 0.10E-01    1.5     0.05409645     -5418.0591662363 -2.58E-01
   242 Broy./Diag. 0.10E-01    1.5     0.01735345     -5418.7999320707 -7.41E-01
   243 Broy./Diag. 0.10E-01    1.5     0.02137620     -5419.1488018697 -3.49E-01
   244 Broy./Diag. 0.10E-01    1.5     0.02272674     -5419.2749028736 -1.26E-01
   245 Broy./Diag. 0.10E-01    1.5     0.02706862     -5418.8992627559  3.76E-01
   246 Broy./Diag. 0.10E-01    1.5     0.03167878     -5419.7913590927 -8.92E-01
   247 Broy./Diag. 0.10E-01    1.5     0.04630306     -5420.1965993980 -4.05E-01
   248 Broy./Diag. 0.10E-01    1.5     0.05893666     -5419.8842280094  3.12E-01
   249 Broy./Diag. 0.10E-01    1.5     0.01546721     -5418.7393339390  1.14E+00
   250 Broy./Diag. 0.10E-01    1.5     0.02176250     -5419.5635577111 -8.24E-01
   251 Broy./Diag. 0.10E-01    1.5     0.02357292     -5420.3084534036 -7.45E-01
   252 Broy./Diag. 0.10E-01    1.5     0.02105444     -5419.7689364561  5.40E-01
   253 Broy./Diag. 0.10E-01    1.5     0.03618863     -5419.0887492541  6.80E-01
   254 Broy./Diag. 0.10E-01    1.5     0.08541679     -5418.9674516601  1.21E-01
   255 Broy./Diag. 0.10E-01    1.5     0.01068931     -5419.2085819881 -2.41E-01
   256 Broy./Diag. 0.10E-01    1.5     0.02918553     -5419.0620866241  1.46E-01
   257 Broy./Diag. 0.10E-01    1.5     0.00826519     -5419.9673061719 -9.05E-01
   258 Broy./Diag. 0.10E-01    1.5     0.01587126     -5419.5758388183  3.91E-01
   259 Broy./Diag. 0.10E-01    1.5     0.03358646     -5418.9142700090  6.62E-01
   260 Broy./Diag. 0.10E-01    1.5     0.00706953     -5417.8752316632  1.04E+00
   261 Broy./Diag. 0.10E-01    1.5     0.01094619     -5418.4629120667 -5.88E-01
   262 Broy./Diag. 0.10E-01    1.5     0.01864681     -5418.7089762252 -2.46E-01
   263 Broy./Diag. 0.10E-01    1.5     0.01587460     -5418.9867765796 -2.78E-01
   264 Broy./Diag. 0.10E-01    1.5     0.01953470     -5418.5222689983  4.65E-01
   265 Broy./Diag. 0.10E-01    1.5     0.01292168     -5418.6796589166 -1.57E-01
   266 Broy./Diag. 0.10E-01    1.5     0.02887779     -5418.9386188883 -2.59E-01
   267 Broy./Diag. 0.10E-01    1.5     0.03919959     -5418.9224898592  1.61E-02
   268 Broy./Diag. 0.10E-01    1.5     0.00777735     -5419.1923393633 -2.70E-01
   269 Broy./Diag. 0.10E-01    1.5     0.01110837     -5419.2702298157 -7.79E-02
   270 Broy./Diag. 0.10E-01    1.5     0.02433738     -5419.6301767434 -3.60E-01
   271 Broy./Diag. 0.10E-01    1.6     0.11306373     -5420.1953562405 -5.65E-01
   272 Broy./Diag. 0.10E-01    1.5     0.03685453     -5420.1411232224  5.42E-02
   273 Broy./Diag. 0.10E-01    1.5     0.00873898     -5420.1198892614  2.12E-02
   274 Broy./Diag. 0.10E-01    1.5     0.04937507     -5420.3615314357 -2.42E-01
   275 Broy./Diag. 0.10E-01    1.5     0.02956560     -5419.8705663170  4.91E-01
   276 Broy./Diag. 0.10E-01    1.5     0.00537139     -5419.6590654584  2.12E-01
   277 Broy./Diag. 0.10E-01    1.5     0.06807788     -5419.1641092019  4.95E-01
   278 Broy./Diag. 0.10E-01    1.5     0.06755424     -5418.6302487201  5.34E-01
   279 Broy./Diag. 0.10E-01    1.5     0.01919965     -5418.8603356684 -2.30E-01
   280 Broy./Diag. 0.10E-01    1.5     0.02730291     -5419.5781702015 -7.18E-01
   281 Broy./Diag. 0.10E-01    1.5     0.04651153     -5419.4804967344  9.77E-02
   282 Broy./Diag. 0.10E-01    1.5     0.02223640     -5417.2205762665  2.26E+00
   283 Broy./Diag. 0.10E-01    1.5     0.01683471     -5418.3544641578 -1.13E+00
   284 Broy./Diag. 0.10E-01    1.5     0.02581271     -5418.4381073622 -8.36E-02
   285 Broy./Diag. 0.10E-01    1.5     0.01435167     -5419.3985913111 -9.60E-01
   286 Broy./Diag. 0.10E-01    1.5     0.02570379     -5418.8485071768  5.50E-01
   287 Broy./Diag. 0.10E-01    1.5     0.05810168     -5418.9564403625 -1.08E-01
   288 Broy./Diag. 0.10E-01    1.5     0.05361304     -5418.5378516932  4.19E-01
   289 Broy./Diag. 0.10E-01    1.5     0.05479398     -5417.9516161961  5.86E-01
   290 Broy./Diag. 0.10E-01    1.5     0.04014470     -5418.0292485667 -7.76E-02
   291 Broy./Diag. 0.10E-01    1.5     0.01168037     -5419.3618648510 -1.33E+00
   292 Broy./Diag. 0.10E-01    1.5     0.03557133     -5418.8480753015  5.14E-01
   293 Broy./Diag. 0.10E-01    1.5     0.07878873     -5418.2308182489  6.17E-01
   294 Broy./Diag. 0.10E-01    1.5     0.04077886     -5418.7267133832 -4.96E-01
   295 Broy./Diag. 0.10E-01    1.5     0.01440260     -5419.2629266703 -5.36E-01
   296 Broy./Diag. 0.10E-01    1.5     0.01476655     -5419.2319378941  3.10E-02
   297 Broy./Diag. 0.10E-01    1.5     0.12657451     -5418.8664841723  3.65E-01
   298 Broy./Diag. 0.10E-01    1.5     0.04492758     -5419.0169588226 -1.50E-01
   299 Broy./Diag. 0.10E-01    1.5     0.03458153     -5419.0238835912 -6.92E-03
   300 Broy./Diag. 0.10E-01    1.5     0.06825877     -5419.0715493549 -4.77E-02
   301 Broy./Diag. 0.10E-01    1.5     0.02673909     -5418.3877290460  6.84E-01
   302 Broy./Diag. 0.10E-01    1.5     0.02572676     -5418.2133214538  1.74E-01
   303 Broy./Diag. 0.10E-01    1.5     0.04703765     -5418.8290257712 -6.16E-01
   304 Broy./Diag. 0.10E-01    1.5     0.02617591     -5418.6485392548  1.80E-01
   305 Broy./Diag. 0.10E-01    1.5     0.04336384     -5418.4062370017  2.42E-01
   306 Broy./Diag. 0.10E-01    1.5     0.01284879     -5417.7965488486  6.10E-01
   307 Broy./Diag. 0.10E-01    1.5     0.02509067     -5418.0580109375 -2.61E-01
   308 Broy./Diag. 0.10E-01    1.5     0.07149493     -5417.9173165275  1.41E-01
   309 Broy./Diag. 0.10E-01    1.5     0.04277796     -5417.6637360792  2.54E-01
   310 Broy./Diag. 0.10E-01    1.5     0.10945404     -5418.4496770406 -7.86E-01
   311 Broy./Diag. 0.10E-01    1.5     0.01759855     -5418.7066510376 -2.57E-01
   312 Broy./Diag. 0.10E-01    1.5     0.01121956     -5418.8094466446 -1.03E-01
   313 Broy./Diag. 0.10E-01    1.5     0.00655543     -5418.5310841988  2.78E-01
   314 Broy./Diag. 0.10E-01    1.5     0.00711775     -5418.6512376051 -1.20E-01
   315 Broy./Diag. 0.10E-01    1.5     0.01102257     -5418.5231306338  1.28E-01
   316 Broy./Diag. 0.10E-01    1.5     0.04886799     -5418.2751956137  2.48E-01
   317 Broy./Diag. 0.10E-01    1.5     0.00526968     -5418.4117966549 -1.37E-01
   318 Broy./Diag. 0.10E-01    1.5     0.01193964     -5418.3955875152  1.62E-02
   319 Broy./Diag. 0.10E-01    1.5     0.07418925     -5417.0433610835  1.35E+00
   320 Broy./Diag. 0.10E-01    1.5     0.04965821     -5415.8474119347  1.20E+00
   321 Broy./Diag. 0.10E-01    1.5     0.01631780     -5417.2118162426 -1.36E+00
   322 Broy./Diag. 0.10E-01    1.5     0.00465826     -5417.3155537003 -1.04E-01
   323 Broy./Diag. 0.10E-01    1.5     0.00937989     -5417.1960225135  1.20E-01
   324 Broy./Diag. 0.10E-01    1.5     0.02723226     -5417.6601173714 -4.64E-01
   325 Broy./Diag. 0.10E-01    1.5     0.03437899     -5418.0221283078 -3.62E-01
   326 Broy./Diag. 0.10E-01    1.5     0.02036847     -5417.6284607863  3.94E-01
   327 Broy./Diag. 0.10E-01    1.5     0.00634476     -5417.4202762943  2.08E-01
   328 Broy./Diag. 0.10E-01    1.5     0.03256920     -5417.5403291024 -1.20E-01
   329 Broy./Diag. 0.10E-01    1.5     0.07011930     -5418.5127075258 -9.72E-01
   330 Broy./Diag. 0.10E-01    1.5     0.01086081     -5420.2725382312 -1.76E+00
   331 Broy./Diag. 0.10E-01    1.5     0.00437534     -5420.2131827103  5.94E-02
   332 Broy./Diag. 0.10E-01    1.5     0.06589626     -5419.9266726229  2.87E-01
   333 Broy./Diag. 0.10E-01    1.5     0.06416603     -5419.9763150101 -4.96E-02
   334 Broy./Diag. 0.10E-01    1.5     0.01048093     -5419.1137551487  8.63E-01
   335 Broy./Diag. 0.10E-01    1.5     0.05091081     -5419.4806536117 -3.67E-01
   336 Broy./Diag. 0.10E-01    1.5     0.01357141     -5419.4880010671 -7.35E-03
   337 Broy./Diag. 0.10E-01    1.5     0.05921460     -5419.2861023812  2.02E-01
   338 Broy./Diag. 0.10E-01    1.5     0.01261579     -5419.8582148445 -5.72E-01
   339 Broy./Diag. 0.10E-01    1.5     0.01230067     -5419.1911259967  6.67E-01
   340 Broy./Diag. 0.10E-01    1.5     0.00828539     -5418.8842294451  3.07E-01
   341 Broy./Diag. 0.10E-01    1.5     0.01376015     -5418.9556458969 -7.14E-02
   342 Broy./Diag. 0.10E-01    1.5     0.03935069     -5419.2236088886 -2.68E-01
   343 Broy./Diag. 0.10E-01    1.5     0.01896365     -5419.0026154991  2.21E-01
   344 Broy./Diag. 0.10E-01    1.5     0.01444852     -5419.0675316669 -6.49E-02
   345 Broy./Diag. 0.10E-01    1.5     0.03791301     -5419.7515782041 -6.84E-01
   346 Broy./Diag. 0.10E-01    1.5     0.02221032     -5421.0751483301 -1.32E+00
   347 Broy./Diag. 0.10E-01    1.5     0.02517745     -5420.8214093099  2.54E-01
   348 Broy./Diag. 0.10E-01    1.5     0.02033941     -5420.6583938223  1.63E-01
   349 Broy./Diag. 0.10E-01    1.5     0.01011083     -5420.5268923197  1.32E-01
   350 Broy./Diag. 0.10E-01    1.5     0.01559050     -5419.9230000891  6.04E-01
   351 Broy./Diag. 0.10E-01    1.5     0.01419909     -5419.8976632059  2.53E-02
   352 Broy./Diag. 0.10E-01    1.5     0.06942947     -5419.6987526275  1.99E-01
   353 Broy./Diag. 0.10E-01    1.5     0.03376567     -5419.0186897609  6.80E-01
   354 Broy./Diag. 0.10E-01    1.5     0.01098825     -5418.6682829842  3.50E-01
   355 Broy./Diag. 0.10E-01    1.5     0.01025194     -5419.0853175203 -4.17E-01
   356 Broy./Diag. 0.10E-01    1.5     0.02467800     -5419.3155091122 -2.30E-01
   357 Broy./Diag. 0.10E-01    1.5     0.03351076     -5419.3409855925 -2.55E-02
   358 Broy./Diag. 0.10E-01    1.5     0.04951900     -5419.1648554763  1.76E-01
   359 Broy./Diag. 0.10E-01    1.5     0.00465049     -5418.8666800859  2.98E-01
   360 Broy./Diag. 0.10E-01    1.5     0.01514371     -5419.2080362072 -3.41E-01
   361 Broy./Diag. 0.10E-01    1.5     0.01700626     -5419.7234765116 -5.15E-01
   362 Broy./Diag. 0.10E-01    1.5     0.01459440     -5419.0595386492  6.64E-01
   363 Broy./Diag. 0.10E-01    1.5     0.00921431     -5418.8359312761  2.24E-01
   364 Broy./Diag. 0.10E-01    1.5     0.03332378     -5419.4343977969 -5.98E-01
   365 Broy./Diag. 0.10E-01    1.5     0.06489150     -5419.0794110008  3.55E-01
   366 Broy./Diag. 0.10E-01    1.5     0.12888243     -5419.3602349170 -2.81E-01
   367 Broy./Diag. 0.10E-01    1.5     0.01889104     -5419.4637775332 -1.04E-01
   368 Broy./Diag. 0.10E-01    1.5     0.02507873     -5418.5970173545  8.67E-01
   369 Broy./Diag. 0.10E-01    1.5     0.01405551     -5417.9565164943  6.41E-01
   370 Broy./Diag. 0.10E-01    1.5     0.02704113     -5417.9800525730 -2.35E-02
