 DBCSR| CPU Multiplication driver                                           XSMM (U)
 DBCSR| Multrec recursion limit                                              512 (U)
 DBCSR| Multiplication stack size                                           1000 (D)
 DBCSR| Maximum elements for images                                    UNLIMITED (U)
 DBCSR| Multiplicative factor virtual images                                   1 (U)
 DBCSR| Use multiplication densification                                       T (D)
 DBCSR| Multiplication size stacks                                             3 (U)
 DBCSR| Use memory pool for CPU allocation                                     F (U)
 DBCSR| Number of 3D layers                                               SINGLE (U)
 DBCSR| Use MPI memory allocation                                              F (U)
 DBCSR| Use RMA algorithm                                                      F (U)
 DBCSR| Use Communication thread                                               T (U)
 DBCSR| Communication thread load                                             87 (D)
 DBCSR| MPI: My process id                                                     0
 DBCSR| MPI: Number of processes                                             128
 DBCSR| OMP: Current number of threads                                         1
 DBCSR| OMP: Max number of threads                                             1
 DBCSR| Split modifier for TAS multiplication algorithm                  1.0E+00 (U)


  **** **** ******  **  PROGRAM STARTED AT               2023-02-06 17:27:16.951
 ***** ** ***  *** **   PROGRAM STARTED ON                             nid004941
 **    ****   ******    PROGRAM STARTED BY                                cahart
 ***** **    ** ** **   PROGRAM PROCESS ID                                131280
  **** **  *******  **  PROGRAM STARTED IN /mnt/lustre/a2fs-work2/work/e05/e05/c
                                           ahart/postdoc/masters/ni/archer2/bulk
                                           /optimise/multiplicity-65_mos-30_temp
                                           -300/search/5.0E-01_1.0E-1

 CP2K| version string:                                       CP2K version 2023.1
 CP2K| source code revision number:                                  git:b888bd8
 CP2K| cp2kflags: omp libint fftw3 libxc elpa parallel scalapack xsmm plumed2 mk
 CP2K|            l
 CP2K| is freely available from                            https://www.cp2k.org/
 CP2K| Program compiled at                          Tue Jan 24 12:43:13 GMT 2023
 CP2K| Program compiled on                                                  ln03
 CP2K| Program compiled for                                              ARCHER2
 CP2K| Data directory path    /mnt/lustre/a2fs-work1/work/y07/shared/apps/core/c
 CP2K| Input file name                                                  cp2k.inp

 GLOBAL| Force Environment number                                              1
 GLOBAL| Basis set file name                                        BASIS_MOLOPT
 GLOBAL| Potential file name                                      GTH_POTENTIALS
 GLOBAL| MM Potential file name                                     MM_POTENTIAL
 GLOBAL| Coordinate file name                                      __STD_INPUT__
 GLOBAL| Method name                                                        CP2K
 GLOBAL| Project name                                                    Ni_bulk
 GLOBAL| Run type                                                         ENERGY
 GLOBAL| FFT library                                                       FFTW3
 GLOBAL| Diagonalization library                                            ELPA
 GLOBAL| DGEMM library                                                      BLAS
 GLOBAL| Minimum number of eigenvectors for ELPA usage                        16
 GLOBAL| Orthonormality check for eigenvectors                          DISABLED
 GLOBAL| Matrix multiplication library                                 ScaLAPACK
 GLOBAL| All-to-all communication in single precision                          F
 GLOBAL| FFTs using library dependent lengths                                  F
 GLOBAL| Grid backend                                                       AUTO
 GLOBAL| Global print level                                               MEDIUM
 GLOBAL| MPI I/O enabled                                                       T
 GLOBAL| Total number of message passing processes                           128
 GLOBAL| Number of threads for this process                                    1
 GLOBAL| This output is from process                                           0
 GLOBAL| Stack size for threads created by OpenMP (OMP_STACKSIZE)        default
 GLOBAL| CPU model name                          AMD EPYC 7742 64-Core Processor
 GLOBAL| CPUID                                                              1002

 MEMORY| system memory details [Kb]
 MEMORY|                        rank 0           min           max       average
 MEMORY| MemTotal            263528084     263528084     263528084     263528084
 MEMORY| MemFree             241489128     241489128     241489128     241489128
 MEMORY| Buffers                 24460         24460         24460         24460
 MEMORY| Cached                1073024       1073024       1073024       1073024
 MEMORY| Slab                  1693760       1693760       1693760       1693760
 MEMORY| SReclaimable           124404        124404        124404        124404
 MEMORY| MemLikelyFree       242711016     242711016     242711016     242711016


 *** Fundamental physical constants (SI units) ***

 *** Literature: B. J. Mohr and B. N. Taylor,
 ***             CODATA recommended values of the fundamental physical
 ***             constants: 2006, Web Version 5.1
 ***             http://physics.nist.gov/constants

 Speed of light in vacuum [m/s]                             2.99792458000000E+08
 Magnetic constant or permeability of vacuum [N/A**2]       1.25663706143592E-06
 Electric constant or permittivity of vacuum [F/m]          8.85418781762039E-12
 Planck constant (h) [J*s]                                  6.62606896000000E-34
 Planck constant (h-bar) [J*s]                              1.05457162825177E-34
 Elementary charge [C]                                      1.60217648700000E-19
 Electron mass [kg]                                         9.10938215000000E-31
 Electron g factor [ ]                                     -2.00231930436220E+00
 Proton mass [kg]                                           1.67262163700000E-27
 Fine-structure constant                                    7.29735253760000E-03
 Rydberg constant [1/m]                                     1.09737315685270E+07
 Avogadro constant [1/mol]                                  6.02214179000000E+23
 Boltzmann constant [J/K]                                   1.38065040000000E-23
 Atomic mass unit [kg]                                      1.66053878200000E-27
 Bohr radius [m]                                            5.29177208590000E-11

 *** Conversion factors ***

 [u] -> [a.u.]                                              1.82288848426455E+03
 [Angstrom] -> [Bohr] = [a.u.]                              1.88972613288564E+00
 [a.u.] = [Bohr] -> [Angstrom]                              5.29177208590000E-01
 [a.u.] -> [s]                                              2.41888432650478E-17
 [a.u.] -> [fs]                                             2.41888432650478E-02
 [a.u.] -> [J]                                              4.35974393937059E-18
 [a.u.] -> [N]                                              8.23872205491840E-08
 [a.u.] -> [K]                                              3.15774647902944E+05
 [a.u.] -> [kJ/mol]                                         2.62549961709828E+03
 [a.u.] -> [kcal/mol]                                       6.27509468713739E+02
 [a.u.] -> [Pa]                                             2.94210107994716E+13
 [a.u.] -> [bar]                                            2.94210107994716E+08
 [a.u.] -> [atm]                                            2.90362800883016E+08
 [a.u.] -> [eV]                                             2.72113838565563E+01
 [a.u.] -> [Hz]                                             6.57968392072181E+15
 [a.u.] -> [1/cm] (wave numbers)                            2.19474631370540E+05
 [a.u./Bohr**2] -> [1/cm]                                   5.14048714338585E+03
 

 CELL_TOP| Volume [angstrom^3]:                                       344.707437
 CELL_TOP| Vector a [angstrom     7.012     0.000     0.000   |a| =     7.011596
 CELL_TOP| Vector b [angstrom     0.000     7.012     0.000   |b| =     7.011596
 CELL_TOP| Vector c [angstrom     0.000     0.000     7.012   |c| =     7.011596
 CELL_TOP| Angle (b,c), alpha [degree]:                                90.000000
 CELL_TOP| Angle (a,c), beta  [degree]:                                90.000000
 CELL_TOP| Angle (a,b), gamma [degree]:                                90.000000
 CELL_TOP| Numerically orthorhombic:                                         YES
 CELL_TOP| Periodicity                                                       XYZ

 CELL_UC| Volume [angstrom^3]:                                         43.088430
 CELL_UC| Vector a [angstrom]     3.506     0.000     0.000   |a| =     3.505798
 CELL_UC| Vector b [angstrom]     0.000     3.506     0.000   |b| =     3.505798
 CELL_UC| Vector c [angstrom]     0.000     0.000     3.506   |c| =     3.505798
 CELL_UC| Angle (b,c), alpha [degree]:                                 90.000000
 CELL_UC| Angle (a,c), beta  [degree]:                                 90.000000
 CELL_UC| Angle (a,b), gamma [degree]:                                 90.000000
 CELL_UC| Numerically orthorhombic:                                          YES
 CELL_UC| Periodicity                                                        XYZ

 GENERATE|  Preliminary Number of Bonds generated:                             0
 GENERATE|  Achieved consistency in connectivity generation.

 CELL| Volume [angstrom^3]:                                           344.707437
 CELL| Vector a [angstrom]:       7.012     0.000     0.000   |a| =     7.011596
 CELL| Vector b [angstrom]:       0.000     7.012     0.000   |b| =     7.011596
 CELL| Vector c [angstrom]:       0.000     0.000     7.012   |c| =     7.011596
 CELL| Angle (b,c), alpha [degree]:                                    90.000000
 CELL| Angle (a,c), beta  [degree]:                                    90.000000
 CELL| Angle (a,b), gamma [degree]:                                    90.000000
 CELL| Numerically orthorhombic:                                             YES
 CELL| Periodicity                                                           XYZ

 CELL_REF| Volume [angstrom^3]:                                       344.707437
 CELL_REF| Vector a [angstrom     7.012     0.000     0.000   |a| =     7.011596
 CELL_REF| Vector b [angstrom     0.000     7.012     0.000   |b| =     7.011596
 CELL_REF| Vector c [angstrom     0.000     0.000     7.012   |c| =     7.011596
 CELL_REF| Angle (b,c), alpha [degree]:                                90.000000
 CELL_REF| Angle (a,c), beta  [degree]:                                90.000000
 CELL_REF| Angle (a,b), gamma [degree]:                                90.000000
 CELL_REF| Numerically orthorhombic:                                         YES
 CELL_REF| Periodicity                                                       XYZ

 *******************************************************************************
 *******************************************************************************
 **                                                                           **
 **     #####                         ##              ##                      **
 **    ##   ##            ##          ##              ##                      **
 **   ##     ##                       ##            ######                    **
 **   ##     ##  ##   ##  ##   #####  ##  ##   ####   ##    #####    #####    **
 **   ##     ##  ##   ##  ##  ##      ## ##   ##      ##   ##   ##  ##   ##   **
 **   ##  ## ##  ##   ##  ##  ##      ####     ###    ##   ######   ######    **
 **    ##  ###   ##   ##  ##  ##      ## ##      ##   ##   ##       ##        **
 **     #######   #####   ##   #####  ##  ##  ####    ##    #####   ##        **
 **           ##                                                    ##        **
 **                                                                           **
 **                                                ... make the atoms dance   **
 **                                                                           **
 **            Copyright (C) by CP2K developers group (2000-2022)             **
 **                      J. Chem. Phys. 152, 194103 (2020)                    **
 **                                                                           **
 *******************************************************************************

 DFT| Spin unrestricted (spin-polarized) Kohn-Sham calculation               UKS
 DFT| Multiplicity                                                            65
 DFT| Number of spin states                                                    2
 DFT| Charge                                                                   0
 DFT| Self-interaction correction (SIC)                                       NO
 DFT| Cutoffs: density                                              1.000000E-10
 DFT|          gradient                                             1.000000E-10
 DFT|          tau                                                  1.000000E-10
 DFT|          cutoff_smoothing_range                               0.000000E+00
 DFT| XC density smoothing                                                  NONE
 DFT| XC derivatives                                                          PW

 FUNCTIONAL| PBE:
 FUNCTIONAL| J.P.Perdew, K.Burke, M.Ernzerhof, Phys. Rev. Letter, vol. 77, n 18,
 FUNCTIONAL|  pp. 3865-3868, (1996){spin polarized}                             


 QS| Method:                                                                 GPW
 QS| Density plane wave grid type                        NON-SPHERICAL FULLSPACE
 QS| Number of grid levels:                                                    5
 QS| Density cutoff [a.u.]:                                                300.0
 QS| Multi grid cutoff [a.u.]: 1) grid level                               300.0
 QS|                           2) grid level                               100.0
 QS|                           3) grid level                                33.3
 QS|                           4) grid level                                11.1
 QS|                           5) grid level                                 3.7
 QS| Grid level progression factor:                                          3.0
 QS| Relative density cutoff [a.u.]:                                        30.0
 QS| Interaction thresholds: eps_pgf_orb:                                1.0E-06
 QS|                         eps_filter_matrix:                          0.0E+00
 QS|                         eps_core_charge:                            1.0E-14
 QS|                         eps_rho_gspace:                             1.0E-12
 QS|                         eps_rho_rspace:                             1.0E-12
 QS|                         eps_gvg_rspace:                             1.0E-06
 QS|                         eps_ppl:                                    1.0E-02
 QS|                         eps_ppnl:                                   1.0E-08


 ATOMIC KIND INFORMATION

  1. Atomic kind: Ni                                    Number of atoms:      32

     Orbital Basis Set                                        DZVP-MOLOPT-SR-GTH

       Number of orbital shell sets:                                           1
       Number of orbital shells:                                               8
       Number of primitive Cartesian functions:                                6
       Number of Cartesian basis functions:                                   31
       Number of spherical basis functions:                                   26
       Norm type:                                                              2

       Normalised Cartesian orbitals:

                        Set   Shell   Orbital            Exponent    Coefficient

                          1       1    2s               10.077428      -0.684558
                                                         5.847736      -0.844524
                                                         2.494033       1.088856
                                                         0.988355       0.395503
                                                         0.344978       0.010224
                                                         0.099466      -0.003250

                          1       2    3s               10.077428       0.096747
                                                         5.847736       0.162504
                                                         2.494033      -0.297192
                                                         0.988355      -0.319752
                                                         0.344978       0.088318
                                                         0.099466       0.118587

                          1       3    4s               10.077428       0.036437
                                                         5.847736      -0.381480
                                                         2.494033       0.003759
                                                         0.988355      -1.048256
                                                         0.344978       0.855825
                                                         0.099466      -0.176350

                          1       4    3px              10.077428      -3.133913
                                                         5.847736       3.027656
                                                         2.494033       2.353227
                                                         0.988355       0.554184
                                                         0.344978       0.019462
                                                         0.099466      -0.000291
                          1       4    3py              10.077428      -3.133913
                                                         5.847736       3.027656
                                                         2.494033       2.353227
                                                         0.988355       0.554184
                                                         0.344978       0.019462
                                                         0.099466      -0.000291
                          1       4    3pz              10.077428      -3.133913
                                                         5.847736       3.027656
                                                         2.494033       2.353227
                                                         0.988355       0.554184
                                                         0.344978       0.019462
                                                         0.099466      -0.000291

                          1       5    4px              10.077428      -0.112729
                                                         5.847736      -0.114008
                                                         2.494033      -0.347303
                                                         0.988355      -0.110323
                                                         0.344978       0.154096
                                                         0.099466       0.058386
                          1       5    4py              10.077428      -0.112729
                                                         5.847736      -0.114008
                                                         2.494033      -0.347303
                                                         0.988355      -0.110323
                                                         0.344978       0.154096
                                                         0.099466       0.058386
                          1       5    4pz              10.077428      -0.112729
                                                         5.847736      -0.114008
                                                         2.494033      -0.347303
                                                         0.988355      -0.110323
                                                         0.344978       0.154096
                                                         0.099466       0.058386

                          1       6    4dx2             10.077428       8.232726
                                                         5.847736       9.105758
                                                         2.494033       2.849835
                                                         0.988355       0.554319
                                                         0.344978       0.067245
                                                         0.099466       0.001940
                          1       6    4dxy             10.077428      14.259500
                                                         5.847736      15.771636
                                                         2.494033       4.936060
                                                         0.988355       0.960109
                                                         0.344978       0.116472
                                                         0.099466       0.003360
                          1       6    4dxz             10.077428      14.259500
                                                         5.847736      15.771636
                                                         2.494033       4.936060
                                                         0.988355       0.960109
                                                         0.344978       0.116472
                                                         0.099466       0.003360
                          1       6    4dy2             10.077428       8.232726
                                                         5.847736       9.105758
                                                         2.494033       2.849835
                                                         0.988355       0.554319
                                                         0.344978       0.067245
                                                         0.099466       0.001940
                          1       6    4dyz             10.077428      14.259500
                                                         5.847736      15.771636
                                                         2.494033       4.936060
                                                         0.988355       0.960109
                                                         0.344978       0.116472
                                                         0.099466       0.003360
                          1       6    4dz2             10.077428       8.232726
                                                         5.847736       9.105758
                                                         2.494033       2.849835
                                                         0.988355       0.554319
                                                         0.344978       0.067245
                                                         0.099466       0.001940

                          1       7    5dx2             10.077428      -2.715373
                                                         5.847736      -4.020640
                                                         2.494033      -1.397569
                                                         0.988355      -0.076143
                                                         0.344978       0.033435
                                                         0.099466       0.026032
                          1       7    5dxy             10.077428      -4.703164
                                                         5.847736      -6.963952
                                                         2.494033      -2.420661
                                                         0.988355      -0.131883
                                                         0.344978       0.057911
                                                         0.099466       0.045088
                          1       7    5dxz             10.077428      -4.703164
                                                         5.847736      -6.963952
                                                         2.494033      -2.420661
                                                         0.988355      -0.131883
                                                         0.344978       0.057911
                                                         0.099466       0.045088
                          1       7    5dy2             10.077428      -2.715373
                                                         5.847736      -4.020640
                                                         2.494033      -1.397569
                                                         0.988355      -0.076143
                                                         0.344978       0.033435
                                                         0.099466       0.026032
                          1       7    5dyz             10.077428      -4.703164
                                                         5.847736      -6.963952
                                                         2.494033      -2.420661
                                                         0.988355      -0.131883
                                                         0.344978       0.057911
                                                         0.099466       0.045088
                          1       7    5dz2             10.077428      -2.715373
                                                         5.847736      -4.020640
                                                         2.494033      -1.397569
                                                         0.988355      -0.076143
                                                         0.344978       0.033435
                                                         0.099466       0.026032

                          1       8    5fx3             10.077428      -0.467694
                                                         5.847736       0.618100
                                                         2.494033       0.066069
                                                         0.988355       0.262898
                                                         0.344978       0.004720
                                                         0.099466       0.007748
                          1       8    5fx2y            10.077428      -1.045795
                                                         5.847736       1.382114
                                                         2.494033       0.147734
                                                         0.988355       0.587859
                                                         0.344978       0.010555
                                                         0.099466       0.017325
                          1       8    5fx2z            10.077428      -1.045795
                                                         5.847736       1.382114
                                                         2.494033       0.147734
                                                         0.988355       0.587859
                                                         0.344978       0.010555
                                                         0.099466       0.017325
                          1       8    5fxy2            10.077428      -1.045795
                                                         5.847736       1.382114
                                                         2.494033       0.147734
                                                         0.988355       0.587859
                                                         0.344978       0.010555
                                                         0.099466       0.017325
                          1       8    5fxyz            10.077428      -1.811371
                                                         5.847736       2.393892
                                                         2.494033       0.255883
                                                         0.988355       1.018201
                                                         0.344978       0.018282
                                                         0.099466       0.030008
                          1       8    5fxz2            10.077428      -1.045795
                                                         5.847736       1.382114
                                                         2.494033       0.147734
                                                         0.988355       0.587859
                                                         0.344978       0.010555
                                                         0.099466       0.017325
                          1       8    5fy3             10.077428      -0.467694
                                                         5.847736       0.618100
                                                         2.494033       0.066069
                                                         0.988355       0.262898
                                                         0.344978       0.004720
                                                         0.099466       0.007748
                          1       8    5fy2z            10.077428      -1.045795
                                                         5.847736       1.382114
                                                         2.494033       0.147734
                                                         0.988355       0.587859
                                                         0.344978       0.010555
                                                         0.099466       0.017325
                          1       8    5fyz2            10.077428      -1.045795
                                                         5.847736       1.382114
                                                         2.494033       0.147734
                                                         0.988355       0.587859
                                                         0.344978       0.010555
                                                         0.099466       0.017325
                          1       8    5fz3             10.077428      -0.467694
                                                         5.847736       0.618100
                                                         2.494033       0.066069
                                                         0.988355       0.262898
                                                         0.344978       0.004720
                                                         0.099466       0.007748

       Atomic covalent radius [Angstrom]:                                  1.150

       Atomic van der Waals radius [Angstrom]:                             1.630

     GTH Potential information for                                   GTH-PBE-q18

       Description:                       Goedecker-Teter-Hutter pseudopotential
                                           Goedecker et al., PRB 54, 1703 (1996)
                                          Hartwigsen et al., PRB 58, 3641 (1998)
                                                      Krack, TCA 114, 145 (2005)

       Gaussian exponent of the core charge distribution:               4.081633
       Electronic configuration (s p d ...):                           4   6   8

       Parameters of the local part of the GTH pseudopotential:

                          rloc        C1          C2          C3          C4
                        0.350000    2.102166    0.648484

       Parameters of the non-local part of the GTH pseudopotential:

                   l      r(l)      h(i,j,l)

                   0    0.261295    0.622658    9.970227
                                    9.970227  -12.871507
                   1    0.224253  -11.142708   12.429566
                                   12.429566  -14.706861
                   2    0.215348  -12.628146


 MOLECULE KIND INFORMATION


 All atoms are their own molecule, skipping detailed information


 TOTAL NUMBERS AND MAXIMUM NUMBERS

  Total number of            - Atomic kinds:                                   1
                             - Atoms:                                         32
                             - Shell sets:                                    32
                             - Shells:                                       256
                             - Primitive Cartesian functions:                192
                             - Cartesian basis functions:                    992
                             - Spherical basis functions:                    832

  Maximum angular momentum of- Orbital basis functions:                        3
                             - Local part of the GTH pseudopotential:          2
                             - Non-local part of the GTH pseudopotential:      3


 MODULE QUICKSTEP: ATOMIC COORDINATES IN ANGSTROM

   Atom Kind Element         X             Y             Z       Z(eff)     Mass
      1    1 Ni   28      0.000000      0.000000      0.000000  18.0000  58.6934
      2    1 Ni   28      0.000000      1.752900      1.752900  18.0000  58.6934
      3    1 Ni   28      1.752900      0.000000      1.752900  18.0000  58.6934
      4    1 Ni   28      1.752900      1.752900      0.000000  18.0000  58.6934
      5    1 Ni   28      3.505798      0.000000      0.000000  18.0000  58.6934
      6    1 Ni   28      3.505798      1.752900      1.752900  18.0000  58.6934
      7    1 Ni   28      5.258698      0.000000      1.752900  18.0000  58.6934
      8    1 Ni   28      5.258698      1.752900      0.000000  18.0000  58.6934
      9    1 Ni   28      0.000000      3.505798      0.000000  18.0000  58.6934
     10    1 Ni   28      0.000000      5.258698      1.752900  18.0000  58.6934
     11    1 Ni   28      1.752900      3.505798      1.752900  18.0000  58.6934
     12    1 Ni   28      1.752900      5.258698      0.000000  18.0000  58.6934
     13    1 Ni   28      3.505798      3.505798      0.000000  18.0000  58.6934
     14    1 Ni   28      3.505798      5.258698      1.752900  18.0000  58.6934
     15    1 Ni   28      5.258698      3.505798      1.752900  18.0000  58.6934
     16    1 Ni   28      5.258698      5.258698      0.000000  18.0000  58.6934
     17    1 Ni   28      0.000000      0.000000      3.505798  18.0000  58.6934
     18    1 Ni   28      0.000000      1.752900      5.258698  18.0000  58.6934
     19    1 Ni   28      1.752900      0.000000      5.258698  18.0000  58.6934
     20    1 Ni   28      1.752900      1.752900      3.505798  18.0000  58.6934
     21    1 Ni   28      3.505798      0.000000      3.505798  18.0000  58.6934
     22    1 Ni   28      3.505798      1.752900      5.258698  18.0000  58.6934
     23    1 Ni   28      5.258698      0.000000      5.258698  18.0000  58.6934
     24    1 Ni   28      5.258698      1.752900      3.505798  18.0000  58.6934
     25    1 Ni   28      0.000000      3.505798      3.505798  18.0000  58.6934
     26    1 Ni   28      0.000000      5.258698      5.258698  18.0000  58.6934
     27    1 Ni   28      1.752900      3.505798      5.258698  18.0000  58.6934
     28    1 Ni   28      1.752900      5.258698      3.505798  18.0000  58.6934
     29    1 Ni   28      3.505798      3.505798      3.505798  18.0000  58.6934
     30    1 Ni   28      3.505798      5.258698      5.258698  18.0000  58.6934
     31    1 Ni   28      5.258698      3.505798      5.258698  18.0000  58.6934
     32    1 Ni   28      5.258698      5.258698      3.505798  18.0000  58.6934



 SCF PARAMETERS         Density guess:                                    ATOMIC
                        --------------------------------------------------------
                        max_scf:                                             500
                        max_scf_history:                                       0
                        max_diis:                                              4
                        --------------------------------------------------------
                        eps_scf:                                        1.00E-08
                        eps_scf_history:                                0.00E+00
                        eps_diis:                                       1.00E-01
                        eps_eigval:                                     1.00E-05
                        --------------------------------------------------------
                        level_shift [a.u.]:                             0.000000
                        added MOs                                        30   30
                        --------------------------------------------------------
                        Mixing method:                            BROYDEN_MIXING
                                                charge density mixing in g-space
                        --------------------------------------------------------
                        Smear method:                                FERMI_DIRAC
                        Electronic temperature [K]:                        300.0
                        Electronic temperature [a.u.]:                  9.50E-04
                        Accuracy threshold:                             1.00E-10
                        --------------------------------------------------------
                        No outer SCF

 PW_GRID| Information for grid number                                          1
 PW_GRID| Grid distributed over                                   128 processors
 PW_GRID| Real space group dimensions                                     8   16
 PW_GRID| the grid is blocked:                                               YES
 PW_GRID| Cutoff [a.u.]                                                    300.0
 PW_GRID| spherical cutoff:                                                   NO
 PW_GRID|   Bounds   1            -54      53                Points:         108
 PW_GRID|   Bounds   2            -54      53                Points:         108
 PW_GRID|   Bounds   3            -54      53                Points:         108
 PW_GRID| Volume element (a.u.^3)  0.1847E-02     Volume (a.u.^3)      2326.2011
 PW_GRID| Grid span                                                    FULLSPACE
 PW_GRID|   Distribution                         Average         Max         Min
 PW_GRID|   G-Vectors                             9841.5       10584        8424
 PW_GRID|   G-Rays                                  91.1          98          78
 PW_GRID|   Real Space Points                     9841.5       10584        8424

 PW_GRID| Information for grid number                                          2
 PW_GRID| Number of the reference grid                                         1
 PW_GRID| Grid distributed over                                   128 processors
 PW_GRID| Real space group dimensions                                     8   16
 PW_GRID| the grid is blocked:                                                NO
 PW_GRID| Cutoff [a.u.]                                                    100.0
 PW_GRID| spherical cutoff:                                                   NO
 PW_GRID|   Bounds   1            -30      29                Points:          60
 PW_GRID|   Bounds   2            -30      29                Points:          60
 PW_GRID|   Bounds   3            -30      29                Points:          60
 PW_GRID| Volume element (a.u.^3)  0.1077E-01     Volume (a.u.^3)      2326.2011
 PW_GRID| Grid span                                                    FULLSPACE
 PW_GRID|   Distribution                         Average         Max         Min
 PW_GRID|   G-Vectors                             1687.5        5880           0
 PW_GRID|   G-Rays                                  28.1          98           0
 PW_GRID|   Real Space Points                     1687.5        1920        1260

 PW_GRID| Information for grid number                                          3
 PW_GRID| Number of the reference grid                                         1
 PW_GRID| Grid distributed over                                   128 processors
 PW_GRID| Real space group dimensions                                     8   16
 PW_GRID| the grid is blocked:                                                NO
 PW_GRID| Cutoff [a.u.]                                                     33.3
 PW_GRID| spherical cutoff:                                                   NO
 PW_GRID|   Bounds   1            -18      17                Points:          36
 PW_GRID|   Bounds   2            -18      17                Points:          36
 PW_GRID|   Bounds   3            -18      17                Points:          36
 PW_GRID| Volume element (a.u.^3)  0.4986E-01     Volume (a.u.^3)      2326.2011
 PW_GRID| Grid span                                                    FULLSPACE
 PW_GRID|   Distribution                         Average         Max         Min
 PW_GRID|   G-Vectors                              364.5        3528           0
 PW_GRID|   G-Rays                                  10.1          98           0
 PW_GRID|   Real Space Points                      364.5         540         288

 PW_GRID| Information for grid number                                          4
 PW_GRID| Number of the reference grid                                         1
 PW_GRID| Grid distributed over                                   128 processors
 PW_GRID| Real space group dimensions                                     8   16
 PW_GRID| the grid is blocked:                                                NO
 PW_GRID| Cutoff [a.u.]                                                     11.1
 PW_GRID| spherical cutoff:                                                   NO
 PW_GRID|   Bounds   1            -10       9                Points:          20
 PW_GRID|   Bounds   2            -10       9                Points:          20
 PW_GRID|   Bounds   3            -10       9                Points:          20
 PW_GRID| Volume element (a.u.^3)  0.2908         Volume (a.u.^3)      2326.2011
 PW_GRID| Grid span                                                    FULLSPACE
 PW_GRID|   Distribution                         Average         Max         Min
 PW_GRID|   G-Vectors                               62.5        1400           0
 PW_GRID|   G-Rays                                   3.1          70           0
 PW_GRID|   Real Space Points                       62.5         120          40

 PW_GRID| Information for grid number                                          5
 PW_GRID| Number of the reference grid                                         1
 PW_GRID| Grid distributed over                                   128 processors
 PW_GRID| Real space group dimensions                                     8   16
 PW_GRID| the grid is blocked:                                                NO
 PW_GRID| Cutoff [a.u.]                                                      3.7
 PW_GRID| spherical cutoff:                                                   NO
 PW_GRID|   Bounds   1             -6       5                Points:          12
 PW_GRID|   Bounds   2             -6       5                Points:          12
 PW_GRID|   Bounds   3             -6       5                Points:          12
 PW_GRID| Volume element (a.u.^3)   1.346         Volume (a.u.^3)      2326.2011
 PW_GRID| Grid span                                                    FULLSPACE
 PW_GRID|   Distribution                         Average         Max         Min
 PW_GRID|   G-Vectors                               13.5         432           0
 PW_GRID|   G-Rays                                   1.1          36           0
 PW_GRID|   Real Space Points                       13.5          24           0

 POISSON| Solver                                                        PERIODIC
 POISSON| Periodicity                                                        XYZ

 RS_GRID| Information for grid number                                          1
 RS_GRID|   Bounds   1            -54      53                Points:         108
 RS_GRID|   Bounds   2            -54      53                Points:         108
 RS_GRID|   Bounds   3            -54      53                Points:         108
 RS_GRID| Real space distribution over                                  8 groups
 RS_GRID| Real space distribution along direction                              2
 RS_GRID| Border size                                                         28
 RS_GRID| Real space distribution over                                 16 groups
 RS_GRID| Real space distribution along direction                              3
 RS_GRID| Border size                                                         28
 RS_GRID|   Distribution                         Average         Max         Min
 RS_GRID|   Planes                                  69.5          70          69
 RS_GRID|   Distribution                         Average         Max         Min
 RS_GRID|   Planes                                  62.8          63          62

 RS_GRID| Information for grid number                                          2
 RS_GRID|   Bounds   1            -30      29                Points:          60
 RS_GRID|   Bounds   2            -30      29                Points:          60
 RS_GRID|   Bounds   3            -30      29                Points:          60
 RS_GRID| Real space fully replicated
 RS_GRID| Group size                                                           1

 RS_GRID| Information for grid number                                          3
 RS_GRID|   Bounds   1            -18      17                Points:          36
 RS_GRID|   Bounds   2            -18      17                Points:          36
 RS_GRID|   Bounds   3            -18      17                Points:          36
 RS_GRID| Real space fully replicated
 RS_GRID| Group size                                                           1

 RS_GRID| Information for grid number                                          4
 RS_GRID|   Bounds   1            -10       9                Points:          20
 RS_GRID|   Bounds   2            -10       9                Points:          20
 RS_GRID|   Bounds   3            -10       9                Points:          20
 RS_GRID| Real space fully replicated
 RS_GRID| Group size                                                           1

 RS_GRID| Information for grid number                                          5
 RS_GRID|   Bounds   1             -6       5                Points:          12
 RS_GRID|   Bounds   2             -6       5                Points:          12
 RS_GRID|   Bounds   3             -6       5                Points:          12
 RS_GRID| Real space fully replicated
 RS_GRID| Group size                                                           1

 Spin 1

 Number of electrons:                                                        320
 Number of occupied orbitals:                                                320
 Number of molecular orbitals:                                               350

 Spin 2

 Number of electrons:                                                        256
 Number of occupied orbitals:                                                256
 Number of molecular orbitals:                                               286

 Number of orbital functions:                                                832
 Number of independent orbital functions:                                    832

 Extrapolation method: initial_guess

 Atomic guess: The first density matrix is obtained in terms of atomic orbitals
               and electronic configurations assigned to each atomic kind

 Guess for atomic kind: Ni

 Electronic structure
    Total number of core electrons                                         10.00
    Total number of valence electrons                                      18.00
    Total number of electrons                                              28.00
    Multiplicity                                                         triplet
    Alpha Electrons
    S   [  1.00  1.00] 1.00  1.00
    P   [  3.00] 3.00
    D      5.00
    Beta Electrons
    S   [  1.00  1.00] 1.00  1.00
    P   [  3.00] 3.00
    D      3.00


 *******************************************************************************
                  Iteration          Convergence                     Energy [au]
 *******************************************************************************
                          1         1.61955                    -167.102733612646
                          2         17.9576                    -156.964728082342
                          3         2.81889                    -168.347679739779
                          4        0.300879                    -168.639029543130
                          5        0.133614                    -168.643718125190
                          6        0.642384E-01                -168.645928334381
                          7        0.411618E-01                -168.646613747745
                          8        0.978516E-02                -168.646711132537
                          9        0.508781E-01                -168.646571314898
                         10        0.138948E-01                -168.646700563277
                         11        0.138660E-01                -168.646700237384
                         12        0.629414E-02                -168.646712261956
                         13        0.566241E-02                -168.646713151996
                         14        0.495313E-02                -168.646714117454
                         15        0.421991E-02                -168.646714987798
                         16        0.338228E-02                -168.646715812720
                         17        0.416465E-02                -168.646716816326
                         18        0.344616E-02                -168.646717043212
                         19        0.330991E-02                -168.646717101846
                         20        0.313342E-02                -168.646717172930
                         21        0.281829E-02                -168.646717286496
                         22        0.848656E-03                -168.646717732580
                         23        0.109512E-02                -168.646717723740
                         24        0.104995E-02                -168.646717732012
                         25        0.102855E-02                -168.646717736906
                         26        0.100245E-02                -168.646717743176
                         27        0.676032E-03                -168.646717806927
                         28        0.602106E-03                -168.646717861030
                         29        0.625282E-03                -168.646717860099
                         30        0.624945E-03                -168.646717860052
                         31        0.623853E-03                -168.646717860100
                         32        0.624150E-03                -168.646717860067
                         33        0.237289E-03                -168.646717879062
                         34        0.180801E-03                -168.646717882280
                         35        0.181452E-03                -168.646717882256
                         36        0.181661E-03                -168.646717882245
                         37        0.181696E-03                -168.646717882243
                         38        0.180660E-03                -168.646717882285
                         39        0.167278E-03                -168.646717884960
                         40        0.108251E-03                -168.646717886084
                         41        0.108355E-03                -168.646717886083
                         42        0.108427E-03                -168.646717886083
                         43        0.108486E-03                -168.646717886083
                         44        0.108485E-03                -168.646717886083
                         45        0.694677E-04                -168.646717886478
                         46        0.318666E-04                -168.646717886752
                         47        0.318508E-04                -168.646717886753
                         48        0.318379E-04                -168.646717886753
                         49        0.318252E-04                -168.646717886753
                         50        0.320703E-04                -168.646717886751
 No convergence within maximum number of iterations 

 Energy components [Hartree]           Total Energy ::         -168.646717886751
                                        Band Energy ::          -26.584923955507
                                     Kinetic Energy ::           97.352330251814
                                   Potential Energy ::         -265.999048138565
                                      Virial (-V/T) ::            2.732333652934
                                        Core Energy ::         -299.595021414610
                                          XC Energy ::          -16.265210292971
                                     Coulomb Energy ::          147.213513820830
                       Total Pseudopotential Energy ::         -397.033695283644
                       Local Pseudopotential Energy ::         -362.697061997994
                    Nonlocal Pseudopotential Energy ::          -34.336633285650
                                        Confinement ::            0.863436172188

 Orbital energies  State     Spin  L     Occupation   Energy[a.u.]    Energy[eV]

                       1    alpha  0          1.000      -4.198782   -114.254674
                       2    alpha  0          1.000      -0.185813     -5.056229
                       1     beta  0          1.000      -4.107299   -111.765292
                       2     beta  0          1.000      -0.171331     -4.662162

                       1    alpha  1          3.000      -2.604156    -70.862688
                       1     beta  1          3.000      -2.515143    -68.440529

                       1    alpha  2          5.000      -0.348813     -9.491687
                       1     beta  2          3.000      -0.273245     -7.435375


 Total Electron Density at R=0:                                         0.030313

 Spin 1
 Re-scaling the density matrix to get the right number of electrons for spin 1
                  # Electrons              Trace(P)               Scaling factor
                          320               320.032                        1.000

 Spin 2
 Re-scaling the density matrix to get the right number of electrons for spin 2
                  # Electrons              Trace(P)               Scaling factor
                          256               256.035                        1.000


 SCF WAVEFUNCTION OPTIMIZATION

  Step     Update method      Time    Convergence         Total energy    Change
  ------------------------------------------------------------------------------
     1 NoMix/Diag. 0.50E+00    0.9     0.80642385     -5430.5035547420 -5.43E+03
     2 Broy./Diag. 0.50E+00    0.5     0.09291584     -5388.6638712088  4.18E+01
     3 Broy./Diag. 0.50E+00    0.6     0.06559296     -5467.6484375909 -7.90E+01
     4 Broy./Diag. 0.50E+00    0.5     0.01015295     -5419.3980452089  4.83E+01
     5 Broy./Diag. 0.50E+00    0.5     0.01093034     -5414.6298281306  4.77E+00
     6 Broy./Diag. 0.50E+00    0.5     0.00750200     -5418.8702281716 -4.24E+00
     7 Broy./Diag. 0.50E+00    0.5     0.00289016     -5418.5595220345  3.11E-01
     8 Broy./Diag. 0.50E+00    0.5     0.00284749     -5417.9764010419  5.83E-01
     9 Broy./Diag. 0.50E+00    0.5     0.00329969     -5417.9370245859  3.94E-02
    10 Broy./Diag. 0.50E+00    0.5     0.00209286     -5417.8915070741  4.55E-02
    11 Broy./Diag. 0.50E+00    0.5     0.00074259     -5417.8466274883  4.49E-02
    12 Broy./Diag. 0.50E+00    0.5     0.00036949     -5417.8449027488  1.72E-03
    13 Broy./Diag. 0.50E+00    0.5     0.00029652     -5417.8358027343  9.10E-03
    14 Broy./Diag. 0.50E+00    0.5     0.00008332     -5417.8322955602  3.51E-03
    15 Broy./Diag. 0.50E+00    0.5     0.00013287     -5417.8318722483  4.23E-04
    16 Broy./Diag. 0.50E+00    0.6     0.00001959     -5417.8318949531 -2.27E-05
    17 Broy./Diag. 0.50E+00    0.5     0.00005592     -5417.8318090047  8.59E-05
    18 Broy./Diag. 0.50E+00    0.5     0.00007428     -5417.8314066750  4.02E-04
    19 Broy./Diag. 0.50E+00    0.5     0.00005047     -5417.8308911658  5.16E-04
    20 Broy./Diag. 0.50E+00    0.5     0.00004139     -5417.8305219145  3.69E-04
    21 Broy./Diag. 0.50E+00    0.5     0.00009189     -5417.8306079012 -8.60E-05
    22 Broy./Diag. 0.50E+00    0.5     0.00008562     -5417.8304869729  1.21E-04
    23 Broy./Diag. 0.50E+00    0.5     0.00002458     -5417.8306350419 -1.48E-04
    24 Broy./Diag. 0.50E+00    0.5     0.00041962     -5417.8298018004  8.33E-04
    25 Broy./Diag. 0.50E+00    0.5     0.00043299     -5417.8279476448  1.85E-03
    26 Broy./Diag. 0.50E+00    0.5     0.00019760     -5417.8299406644 -1.99E-03
    27 Broy./Diag. 0.50E+00    0.5     0.00021922     -5417.8316361361 -1.70E-03
    28 Broy./Diag. 0.50E+00    0.5     0.00018876     -5417.8320517962 -4.16E-04
    29 Broy./Diag. 0.50E+00    0.5     0.00014898     -5417.8317763238  2.75E-04
    30 Broy./Diag. 0.50E+00    0.5     0.00013488     -5417.8309474136  8.29E-04
    31 Broy./Diag. 0.50E+00    0.5     0.00008122     -5417.8303981032  5.49E-04
    32 Broy./Diag. 0.50E+00    0.5     0.00012193     -5417.8310542906 -6.56E-04
    33 Broy./Diag. 0.50E+00    0.5     0.00009278     -5417.8310343797  1.99E-05
    34 Broy./Diag. 0.50E+00    0.5     0.00007640     -5417.8310624379 -2.81E-05
    35 Broy./Diag. 0.50E+00    0.5     0.00026585     -5417.8308278697  2.35E-04
    36 Broy./Diag. 0.50E+00    0.5     0.00025705     -5417.8305397647  2.88E-04
    37 Broy./Diag. 0.50E+00    0.5     0.00013293     -5417.8304853841  5.44E-05
    38 Broy./Diag. 0.50E+00    0.5     0.00010068     -5417.8306583338 -1.73E-04
    39 Broy./Diag. 0.50E+00    0.5     0.00006216     -5417.8308072000 -1.49E-04
    40 Broy./Diag. 0.50E+00    0.5     0.00004944     -5417.8308410919 -3.39E-05
    41 Broy./Diag. 0.50E+00    0.5     0.00002939     -5417.8307676777  7.34E-05
    42 Broy./Diag. 0.50E+00    0.5     0.00003229     -5417.8307071110  6.06E-05
    43 Broy./Diag. 0.50E+00    0.5     0.00004851     -5417.8306633992  4.37E-05
    44 Broy./Diag. 0.50E+00    0.5     0.00010307     -5417.8307695873 -1.06E-04
    45 Broy./Diag. 0.50E+00    0.5     0.00016091     -5417.8307677382  1.85E-06
    46 Broy./Diag. 0.50E+00    0.5     0.00012170     -5417.8306735723  9.42E-05
    47 Broy./Diag. 0.50E+00    0.5     0.00011489     -5417.8306436069  3.00E-05
    48 Broy./Diag. 0.50E+00    0.5     0.00012097     -5417.8306604100 -1.68E-05
    49 Broy./Diag. 0.50E+00    0.5     0.00009746     -5417.8307176686 -5.73E-05
    50 Broy./Diag. 0.50E+00    0.5     0.00008458     -5417.8307122288  5.44E-06
    51 Broy./Diag. 0.50E+00    0.5     0.00010096     -5417.8306874684  2.48E-05
    52 Broy./Diag. 0.50E+00    0.5     0.00011745     -5417.8306883992 -9.31E-07
    53 Broy./Diag. 0.50E+00    0.6     0.00011626     -5417.8306922768 -3.88E-06
    54 Broy./Diag. 0.50E+00    0.5     0.00033620     -5417.8307177448 -2.55E-05
    55 Broy./Diag. 0.50E+00    0.5     0.00028523     -5417.8307440240 -2.63E-05
    56 Broy./Diag. 0.50E+00    0.5     0.00022154     -5417.8307354749  8.55E-06
    57 Broy./Diag. 0.50E+00    0.5     0.00017202     -5417.8307163990  1.91E-05
    58 Broy./Diag. 0.50E+00    0.5     0.00013634     -5417.8307134896  2.91E-06
    59 Broy./Diag. 0.50E+00    0.5     0.00015885     -5417.8307036775  9.81E-06
    60 Broy./Diag. 0.50E+00    0.5     0.00017209     -5417.8306894397  1.42E-05
    61 Broy./Diag. 0.50E+00    0.5     0.00009417     -5417.8306952054 -5.77E-06
    62 Broy./Diag. 0.50E+00    0.5     0.00016264     -5417.8307051076 -9.90E-06
    63 Broy./Diag. 0.50E+00    0.5     0.00011485     -5417.8307123408 -7.23E-06
    64 Broy./Diag. 0.50E+00    0.5     0.00011460     -5417.8307149793 -2.64E-06
    65 Broy./Diag. 0.50E+00    0.5     0.00005945     -5417.8307140466  9.33E-07
    66 Broy./Diag. 0.50E+00    0.5     0.00007321     -5417.8307110548  2.99E-06
    67 Broy./Diag. 0.50E+00    0.5     0.00005154     -5417.8307111225 -6.77E-08
    68 Broy./Diag. 0.50E+00    0.5     0.00005362     -5417.8307112742 -1.52E-07
    69 Broy./Diag. 0.50E+00    0.5     0.00003515     -5417.8307110060  2.68E-07
    70 Broy./Diag. 0.50E+00    0.5     0.00006311     -5417.8307126067 -1.60E-06
    71 Broy./Diag. 0.50E+00    0.5     0.00013243     -5417.8307115882  1.02E-06
    72 Broy./Diag. 0.50E+00    0.5     0.00028228     -5417.8307114826  1.06E-07
    73 Broy./Diag. 0.50E+00    0.5     0.00023903     -5417.8307120608 -5.78E-07
    74 Broy./Diag. 0.50E+00    0.5     0.00019971     -5417.8307098899  2.17E-06
    75 Broy./Diag. 0.50E+00    0.5     0.00017532     -5417.8307093679  5.22E-07
    76 Broy./Diag. 0.50E+00    0.5     0.00014128     -5417.8307104544 -1.09E-06
    77 Broy./Diag. 0.50E+00    0.5     0.00012885     -5417.8307109264 -4.72E-07
    78 Broy./Diag. 0.50E+00    0.5     0.00012264     -5417.8307109599 -3.36E-08
    79 Broy./Diag. 0.50E+00    0.5     0.00008403     -5417.8307110637 -1.04E-07
    80 Broy./Diag. 0.50E+00    0.5     0.00008897     -5417.8307110663 -2.54E-09
    81 Broy./Diag. 0.50E+00    0.5     0.00010258     -5417.8307110886 -2.23E-08
    82 Broy./Diag. 0.50E+00    0.5     0.00025550     -5417.8307109094  1.79E-07
    83 Broy./Diag. 0.50E+00    0.5     0.00017546     -5417.8307109883 -7.89E-08
    84 Broy./Diag. 0.50E+00    0.5     0.00012996     -5417.8307112891 -3.01E-07
    85 Broy./Diag. 0.50E+00    0.5     0.00013354     -5417.8307111785  1.11E-07
    86 Broy./Diag. 0.50E+00    0.5     0.00006758     -5417.8307112080 -2.95E-08
    87 Broy./Diag. 0.50E+00    0.5     0.00005326     -5417.8307112684 -6.04E-08
    88 Broy./Diag. 0.50E+00    0.5     0.00006177     -5417.8307112038  6.46E-08
    89 Broy./Diag. 0.50E+00    0.6     0.00004959     -5417.8307113271 -1.23E-07
    90 Broy./Diag. 0.50E+00    0.5     0.00004248     -5417.8307113353 -8.22E-09
    91 Broy./Diag. 0.50E+00    0.5     0.00007362     -5417.8307114065 -7.12E-08
    92 Broy./Diag. 0.50E+00    0.5     0.00026663     -5417.8307113871  1.94E-08
    93 Broy./Diag. 0.50E+00    0.5     0.00024641     -5417.8307113781  9.07E-09
    94 Broy./Diag. 0.50E+00    0.5     0.00010623     -5417.8307114896 -1.12E-07
    95 Broy./Diag. 0.50E+00    0.5     0.00008788     -5417.8307113531  1.36E-07
    96 Broy./Diag. 0.50E+00    0.5     0.00007479     -5417.8307114361 -8.30E-08
    97 Broy./Diag. 0.50E+00    0.5     0.00003404     -5417.8307114559 -1.98E-08
    98 Broy./Diag. 0.50E+00    0.5     0.00004929     -5417.8307114986 -4.26E-08
    99 Broy./Diag. 0.50E+00    0.5     0.00002284     -5417.8307114693  2.92E-08
   100 Broy./Diag. 0.50E+00    0.5     0.00002602     -5417.8307114783 -8.92E-09
   101 Broy./Diag. 0.50E+00    0.5     0.00003759     -5417.8307114627  1.56E-08
   102 Broy./Diag. 0.50E+00    0.5     0.00014316     -5417.8307115018 -3.91E-08
   103 Broy./Diag. 0.50E+00    0.5     0.00014520     -5417.8307114488  5.30E-08
   104 Broy./Diag. 0.50E+00    0.5     0.00028797     -5417.8307114688 -2.01E-08
   105 Broy./Diag. 0.50E+00    0.5     0.00034052     -5417.8307114010  6.78E-08
   106 Broy./Diag. 0.50E+00    0.5     0.00010047     -5417.8307114218 -2.08E-08
   107 Broy./Diag. 0.50E+00    0.5     0.00011727     -5417.8307115137 -9.19E-08
   108 Broy./Diag. 0.50E+00    0.6     0.00018853     -5417.8307115046  9.11E-09
   109 Broy./Diag. 0.50E+00    0.5     0.00009621     -5417.8307114782  2.64E-08
   110 Broy./Diag. 0.50E+00    0.5     0.00008154     -5417.8307114803 -2.12E-09
   111 Broy./Diag. 0.50E+00    0.5     0.00008103     -5417.8307114871 -6.75E-09
   112 Broy./Diag. 0.50E+00    0.5     0.00027045     -5417.8307114631  2.40E-08
   113 Broy./Diag. 0.50E+00    0.5     0.00030892     -5417.8307114875 -2.45E-08
   114 Broy./Diag. 0.50E+00    0.5     0.00015142     -5417.8307115031 -1.56E-08
   115 Broy./Diag. 0.50E+00    0.5     0.00020881     -5417.8307114906  1.25E-08
   116 Broy./Diag. 0.50E+00    0.5     0.00019185     -5417.8307115061 -1.55E-08
   117 Broy./Diag. 0.50E+00    0.5     0.00020891     -5417.8307114457  6.03E-08
   118 Broy./Diag. 0.50E+00    0.5     0.00019521     -5417.8307114925 -4.68E-08
   119 Broy./Diag. 0.50E+00    0.5     0.00017809     -5417.8307114363  5.63E-08
   120 Broy./Diag. 0.50E+00    0.5     0.00012638     -5417.8307115229 -8.67E-08
   121 Broy./Diag. 0.50E+00    0.5     0.00009275     -5417.8307114623  6.06E-08
   122 Broy./Diag. 0.50E+00    0.5     0.00029573     -5417.8307115161 -5.38E-08
   123 Broy./Diag. 0.50E+00    0.5     0.00030147     -5417.8307115055  1.07E-08
   124 Broy./Diag. 0.50E+00    0.5     0.00011527     -5417.8307114308  7.47E-08
   125 Broy./Diag. 0.50E+00    0.5     0.00017233     -5417.8307115174 -8.67E-08
   126 Broy./Diag. 0.50E+00    0.5     0.00023171     -5417.8307115062  1.13E-08
   127 Broy./Diag. 0.50E+00    0.5     0.00024277     -5417.8307115289 -2.27E-08
   128 Broy./Diag. 0.50E+00    0.5     0.00023982     -5417.8307114945  3.44E-08
   129 Broy./Diag. 0.50E+00    0.5     0.00007861     -5417.8307115184 -2.40E-08
   130 Broy./Diag. 0.50E+00    0.5     0.00012063     -5417.8307114684  5.00E-08
   131 Broy./Diag. 0.50E+00    0.5     0.00012592     -5417.8307114719 -3.54E-09
   132 Broy./Diag. 0.50E+00    0.5     0.00034224     -5417.8307114665  5.39E-09
   133 Broy./Diag. 0.50E+00    0.5     0.00033088     -5417.8307115167 -5.01E-08
   134 Broy./Diag. 0.50E+00    0.5     0.00013782     -5417.8307115320 -1.53E-08
   135 Broy./Diag. 0.50E+00    0.5     0.00013994     -5417.8307114071  1.25E-07
   136 Broy./Diag. 0.50E+00    0.5     0.00022071     -5417.8307115032 -9.61E-08
   137 Broy./Diag. 0.50E+00    0.5     0.00014985     -5417.8307114866  1.65E-08
   138 Broy./Diag. 0.50E+00    0.5     0.00032202     -5417.8307114443  4.24E-08
   139 Broy./Diag. 0.50E+00    0.5     0.00020316     -5417.8307115445 -1.00E-07
   140 Broy./Diag. 0.50E+00    0.5     0.00015344     -5417.8307115624 -1.79E-08
   141 Broy./Diag. 0.50E+00    0.5     0.00016639     -5417.8307114535  1.09E-07
   142 Broy./Diag. 0.50E+00    0.5     0.00012833     -5417.8307114682 -1.47E-08
   143 Broy./Diag. 0.50E+00    0.5     0.00034578     -5417.8307114664  1.79E-09
   144 Broy./Diag. 0.50E+00    0.6     0.00024192     -5417.8307115281 -6.17E-08
   145 Broy./Diag. 0.50E+00    0.5     0.00014532     -5417.8307115315 -3.36E-09
   146 Broy./Diag. 0.50E+00    0.5     0.00020999     -5417.8307114757  5.57E-08
   147 Broy./Diag. 0.50E+00    0.5     0.00022342     -5417.8307114812 -5.50E-09
   148 Broy./Diag. 0.50E+00    0.5     0.00032645     -5417.8307114661  1.51E-08
   149 Broy./Diag. 0.50E+00    0.5     0.00028462     -5417.8307115252 -5.91E-08
   150 Broy./Diag. 0.50E+00    0.5     0.00020079     -5417.8307115313 -6.12E-09
   151 Broy./Diag. 0.50E+00    0.5     0.00017388     -5417.8307113946  1.37E-07
   152 Broy./Diag. 0.50E+00    0.5     0.00014084     -5417.8307115055 -1.11E-07
   153 Broy./Diag. 0.50E+00    0.5     0.00030231     -5417.8307114890  1.65E-08
   154 Broy./Diag. 0.50E+00    0.5     0.00028777     -5417.8307115203 -3.13E-08
   155 Broy./Diag. 0.50E+00    0.5     0.00017772     -5417.8307115036  1.67E-08
   156 Broy./Diag. 0.50E+00    0.5     0.00020353     -5417.8307114601  4.35E-08
   157 Broy./Diag. 0.50E+00    0.5     0.00029455     -5417.8307114783 -1.82E-08
   158 Broy./Diag. 0.50E+00    0.5     0.00025394     -5417.8307115078 -2.94E-08
   159 Broy./Diag. 0.50E+00    0.5     0.00036531     -5417.8307113840  1.24E-07
   160 Broy./Diag. 0.50E+00    0.5     0.00023391     -5417.8307115567 -1.73E-07
   161 Broy./Diag. 0.50E+00    0.5     0.00014584     -5417.8307115151  4.16E-08
   162 Broy./Diag. 0.50E+00    0.5     0.00013682     -5417.8307114497  6.54E-08
   163 Broy./Diag. 0.50E+00    0.5     0.00013693     -5417.8307114628 -1.31E-08
   164 Broy./Diag. 0.50E+00    0.5     0.00029772     -5417.8307115299 -6.71E-08
   165 Broy./Diag. 0.50E+00    0.5     0.00029002     -5417.8307115520 -2.22E-08
   166 Broy./Diag. 0.50E+00    0.5     0.00031162     -5417.8307115638 -1.18E-08
   167 Broy./Diag. 0.50E+00    0.5     0.00029607     -5417.8307114747  8.91E-08
   168 Broy./Diag. 0.50E+00    0.5     0.00028959     -5417.8307114383  3.64E-08
   169 Broy./Diag. 0.50E+00    0.5     0.00042635     -5417.8307114673 -2.90E-08
   170 Broy./Diag. 0.50E+00    0.5     0.00027671     -5417.8307114406  2.68E-08
   171 Broy./Diag. 0.50E+00    0.5     0.00016632     -5417.8307115225 -8.19E-08
   172 Broy./Diag. 0.50E+00    0.5     0.00018434     -5417.8307115202  2.26E-09
   173 Broy./Diag. 0.50E+00    0.5     0.00009569     -5417.8307115022  1.80E-08
   174 Broy./Diag. 0.50E+00    0.5     0.00024275     -5417.8307115399 -3.76E-08
   175 Broy./Diag. 0.50E+00    0.5     0.00031871     -5417.8307115321  7.73E-09
   176 Broy./Diag. 0.50E+00    0.5     0.00032584     -5417.8307114762  5.60E-08
   177 Broy./Diag. 0.50E+00    0.5     0.00025634     -5417.8307114473  2.89E-08
   178 Broy./Diag. 0.50E+00    0.5     0.00017583     -5417.8307115383 -9.10E-08
   179 Broy./Diag. 0.50E+00    0.5     0.00025640     -5417.8307115166  2.17E-08
   180 Broy./Diag. 0.50E+00    0.5     0.00025936     -5417.8307114536  6.30E-08
   181 Broy./Diag. 0.50E+00    0.6     0.00018377     -5417.8307115058 -5.23E-08
   182 Broy./Diag. 0.50E+00    0.5     0.00020924     -5417.8307115166 -1.08E-08
   183 Broy./Diag. 0.50E+00    0.5     0.00020269     -5417.8307115074  9.20E-09
   184 Broy./Diag. 0.50E+00    0.5     0.00030890     -5417.8307114537  5.37E-08
   185 Broy./Diag. 0.50E+00    0.5     0.00030115     -5417.8307115236 -6.99E-08
   186 Broy./Diag. 0.50E+00    0.5     0.00019952     -5417.8307115250 -1.43E-09
   187 Broy./Diag. 0.50E+00    0.5     0.00031576     -5417.8307115075  1.75E-08
   188 Broy./Diag. 0.50E+00    0.5     0.00033380     -5417.8307114653  4.21E-08
   189 Broy./Diag. 0.50E+00    0.5     0.00025634     -5417.8307114821 -1.67E-08
   190 Broy./Diag. 0.50E+00    0.5     0.00024990     -5417.8307115552 -7.31E-08
   191 Broy./Diag. 0.50E+00    0.5     0.00016915     -5417.8307114964  5.87E-08
   192 Broy./Diag. 0.50E+00    0.5     0.00011490     -5417.8307114895  6.99E-09
   193 Broy./Diag. 0.50E+00    0.5     0.00019432     -5417.8307115154 -2.59E-08
   194 Broy./Diag. 0.50E+00    0.5     0.00034514     -5417.8307115141  1.27E-09
   195 Broy./Diag. 0.50E+00    0.5     0.00031394     -5417.8307115074  6.70E-09
   196 Broy./Diag. 0.50E+00    0.6     0.00020762     -5417.8307114555  5.19E-08
   197 Broy./Diag. 0.50E+00    0.6     0.00020378     -5417.8307115015 -4.60E-08
   198 Broy./Diag. 0.50E+00    0.6     0.00035161     -5417.8307115325 -3.10E-08
   199 Broy./Diag. 0.50E+00    0.6     0.00034928     -5417.8307113807  1.52E-07
   200 Broy./Diag. 0.50E+00    0.5     0.00032056     -5417.8307115064 -1.26E-07
   201 Broy./Diag. 0.50E+00    0.5     0.00029436     -5417.8307115185 -1.22E-08
   202 Broy./Diag. 0.50E+00    0.5     0.00017199     -5417.8307115075  1.10E-08
   203 Broy./Diag. 0.50E+00    0.5     0.00019012     -5417.8307114760  3.15E-08
   204 Broy./Diag. 0.50E+00    0.5     0.00013823     -5417.8307113524  1.24E-07
   205 Broy./Diag. 0.50E+00    0.5     0.00027879     -5417.8307115430 -1.91E-07
   206 Broy./Diag. 0.50E+00    0.5     0.00031398     -5417.8307114878  5.52E-08
   207 Broy./Diag. 0.50E+00    0.5     0.00026569     -5417.8307115215 -3.38E-08
   208 Broy./Diag. 0.50E+00    0.5     0.00022751     -5417.8307114404  8.11E-08
   209 Broy./Diag. 0.50E+00    0.5     0.00024894     -5417.8307114783 -3.79E-08
   210 Broy./Diag. 0.50E+00    0.5     0.00036676     -5417.8307114562  2.21E-08
   211 Broy./Diag. 0.50E+00    0.5     0.00031494     -5417.8307114830 -2.69E-08
   212 Broy./Diag. 0.50E+00    0.5     0.00025133     -5417.8307115500 -6.70E-08
   213 Broy./Diag. 0.50E+00    0.5     0.00030320     -5417.8307114051  1.45E-07
   214 Broy./Diag. 0.50E+00    0.5     0.00017247     -5417.8307115006 -9.55E-08
   215 Broy./Diag. 0.50E+00    0.5     0.00029753     -5417.8307115192 -1.87E-08
   216 Broy./Diag. 0.50E+00    0.5     0.00026559     -5417.8307115198 -5.98E-10
   217 Broy./Diag. 0.50E+00    0.6     0.00014003     -5417.8307115168  2.97E-09
   218 Broy./Diag. 0.50E+00    0.5     0.00012922     -5417.8307114686  4.83E-08
   219 Broy./Diag. 0.50E+00    0.5     0.00017700     -5417.8307114797 -1.11E-08
   220 Broy./Diag. 0.50E+00    0.5     0.00018495     -5417.8307114956 -1.58E-08
   221 Broy./Diag. 0.50E+00    0.5     0.00019153     -5417.8307114875  8.10E-09
   222 Broy./Diag. 0.50E+00    0.5     0.00020847     -5417.8307115298 -4.23E-08
   223 Broy./Diag. 0.50E+00    0.5     0.00032182     -5417.8307114984  3.14E-08
   224 Broy./Diag. 0.50E+00    0.5     0.00032480     -5417.8307114454  5.30E-08
   225 Broy./Diag. 0.50E+00    0.5     0.00028563     -5417.8307115083 -6.29E-08
   226 Broy./Diag. 0.50E+00    0.5     0.00021675     -5417.8307115083  3.09E-11
   227 Broy./Diag. 0.50E+00    0.5     0.00009973     -5417.8307114811  2.71E-08
   228 Broy./Diag. 0.50E+00    0.5     0.00028494     -5417.8307115142 -3.31E-08
   229 Broy./Diag. 0.50E+00    0.5     0.00030018     -5417.8307114863  2.79E-08
   230 Broy./Diag. 0.50E+00    0.5     0.00022009     -5417.8307114841  2.22E-09
   231 Broy./Diag. 0.50E+00    0.5     0.00028527     -5417.8307114965 -1.24E-08
   232 Broy./Diag. 0.50E+00    0.5     0.00033150     -5417.8307115200 -2.35E-08
   233 Broy./Diag. 0.50E+00    0.5     0.00025654     -5417.8307114522  6.78E-08
   234 Broy./Diag. 0.50E+00    0.5     0.00018734     -5417.8307114967 -4.45E-08
   235 Broy./Diag. 0.50E+00    0.5     0.00018749     -5417.8307114794  1.73E-08
   236 Broy./Diag. 0.50E+00    0.5     0.00023565     -5417.8307115332 -5.38E-08
   237 Broy./Diag. 0.50E+00    0.5     0.00027420     -5417.8307115015  3.16E-08
   238 Broy./Diag. 0.50E+00    0.5     0.00028723     -5417.8307114874  1.41E-08
   239 Broy./Diag. 0.50E+00    0.5     0.00032496     -5417.8307115119 -2.45E-08
   240 Broy./Diag. 0.50E+00    0.5     0.00018631     -5417.8307114902  2.16E-08
   241 Broy./Diag. 0.50E+00    0.5     0.00026456     -5417.8307114929 -2.63E-09
   242 Broy./Diag. 0.50E+00    0.5     0.00036342     -5417.8307114240  6.89E-08
   243 Broy./Diag. 0.50E+00    0.5     0.00035359     -5417.8307114813 -5.73E-08
   244 Broy./Diag. 0.50E+00    0.5     0.00026949     -5417.8307115053 -2.40E-08
   245 Broy./Diag. 0.50E+00    0.5     0.00035787     -5417.8307115120 -6.74E-09
   246 Broy./Diag. 0.50E+00    0.5     0.00029029     -5417.8307114877  2.43E-08
   247 Broy./Diag. 0.50E+00    0.5     0.00028019     -5417.8307114431  4.46E-08
   248 Broy./Diag. 0.50E+00    0.5     0.00025132     -5417.8307115019 -5.88E-08
   249 Broy./Diag. 0.50E+00    0.5     0.00038411     -5417.8307113744  1.27E-07
   250 Broy./Diag. 0.50E+00    0.5     0.00030912     -5417.8307115533 -1.79E-07
   251 Broy./Diag. 0.50E+00    0.5     0.00031120     -5417.8307114695  8.39E-08
   252 Broy./Diag. 0.50E+00    0.5     0.00032410     -5417.8307114038  6.57E-08
   253 Broy./Diag. 0.50E+00    0.5     0.00039171     -5417.8307114661 -6.23E-08
   254 Broy./Diag. 0.50E+00    0.5     0.00040457     -5417.8307113878  7.82E-08
   255 Broy./Diag. 0.50E+00    0.5     0.00027842     -5417.8307115463 -1.58E-07
   256 Broy./Diag. 0.50E+00    0.5     0.00030561     -5417.8307116273 -8.10E-08
   257 Broy./Diag. 0.50E+00    0.5     0.00022443     -5417.8307115626  6.47E-08
   258 Broy./Diag. 0.50E+00    0.5     0.00025061     -5417.8307112538  3.09E-07
   259 Broy./Diag. 0.50E+00    0.5     0.00017612     -5417.8307115300 -2.76E-07
   260 Broy./Diag. 0.50E+00    0.5     0.00020797     -5417.8307114103  1.20E-07
   261 Broy./Diag. 0.50E+00    0.5     0.00031454     -5417.8307114917 -8.14E-08
   262 Broy./Diag. 0.50E+00    0.5     0.00020413     -5417.8307114247  6.71E-08
   263 Broy./Diag. 0.50E+00    0.5     0.00021260     -5417.8307115028 -7.81E-08
   264 Broy./Diag. 0.50E+00    0.6     0.00030844     -5417.8307114408  6.20E-08
   265 Broy./Diag. 0.50E+00    0.5     0.00028402     -5417.8307115763 -1.36E-07
   266 Broy./Diag. 0.50E+00    0.5     0.00020151     -5417.8307115252  5.11E-08
   267 Broy./Diag. 0.50E+00    0.5     0.00027120     -5417.8307115216  3.60E-09
   268 Broy./Diag. 0.50E+00    0.5     0.00030539     -5417.8307114970  2.46E-08
   269 Broy./Diag. 0.50E+00    0.5     0.00014569     -5417.8307114242  7.27E-08
   270 Broy./Diag. 0.50E+00    0.5     0.00018243     -5417.8307114731 -4.88E-08
   271 Broy./Diag. 0.50E+00    0.5     0.00027711     -5417.8307115001 -2.70E-08
   272 Broy./Diag. 0.50E+00    0.6     0.00034014     -5417.8307114608  3.93E-08
   273 Broy./Diag. 0.50E+00    0.6     0.00027695     -5417.8307115139 -5.31E-08
   274 Broy./Diag. 0.50E+00    0.5     0.00020109     -5417.8307114000  1.14E-07
   275 Broy./Diag. 0.50E+00    0.5     0.00031105     -5417.8307115281 -1.28E-07
   276 Broy./Diag. 0.50E+00    0.5     0.00032877     -5417.8307115452 -1.71E-08
   277 Broy./Diag. 0.50E+00    0.5     0.00027631     -5417.8307113930  1.52E-07
   278 Broy./Diag. 0.50E+00    0.5     0.00024768     -5417.8307115036 -1.11E-07
   279 Broy./Diag. 0.50E+00    0.5     0.00017548     -5417.8307114989  4.70E-09
   280 Broy./Diag. 0.50E+00    0.5     0.00035491     -5417.8307113957  1.03E-07
   281 Broy./Diag. 0.50E+00    0.5     0.00021025     -5417.8307114776 -8.19E-08
   282 Broy./Diag. 0.50E+00    0.5     0.00028691     -5417.8307114984 -2.09E-08
   283 Broy./Diag. 0.50E+00    0.5     0.00040860     -5417.8307115177 -1.93E-08
   284 Broy./Diag. 0.50E+00    0.5     0.00039080     -5417.8307114519  6.58E-08
   285 Broy./Diag. 0.50E+00    0.5     0.00029759     -5417.8307115085 -5.66E-08
   286 Broy./Diag. 0.50E+00    0.5     0.00030358     -5417.8307115286 -2.01E-08
   287 Broy./Diag. 0.50E+00    0.5     0.00016300     -5417.8307114885  4.00E-08
   288 Broy./Diag. 0.50E+00    0.5     0.00030844     -5417.8307114882  2.77E-10
   289 Broy./Diag. 0.50E+00    0.5     0.00028524     -5417.8307113023  1.86E-07
   290 Broy./Diag. 0.50E+00    0.6     0.00033715     -5417.8307113392 -3.70E-08
   291 Broy./Diag. 0.50E+00    0.5     0.00034758     -5417.8307115043 -1.65E-07
   292 Broy./Diag. 0.50E+00    0.5     0.00028643     -5417.8307115725 -6.82E-08
   293 Broy./Diag. 0.50E+00    0.5     0.00020104     -5417.8307114496  1.23E-07
   294 Broy./Diag. 0.50E+00    0.5     0.00030433     -5417.8307115445 -9.49E-08
[...]
      18     Ni       1         9.343821     8.656581    -0.000401     0.687240
      19     Ni       1         9.343770     8.656441    -0.000211     0.687329
      20     Ni       1         9.343792     8.656285    -0.000076     0.687507
      21     Ni       1         9.343749     8.656220     0.000031     0.687529
      22     Ni       1         9.343810     8.656550    -0.000360     0.687260
      23     Ni       1         9.343752     8.656364    -0.000116     0.687388
      24     Ni       1         9.343742     8.656101     0.000157     0.687641
      25     Ni       1         9.343826     8.656507    -0.000334     0.687319
      26     Ni       1         9.343790     8.656479    -0.000269     0.687311
      27     Ni       1         9.343841     8.656693    -0.000534     0.687148
      28     Ni       1         9.343736     8.656083     0.000181     0.687653
      29     Ni       1         9.343822     8.656462    -0.000284     0.687360
      30     Ni       1         9.343750     8.656312    -0.000062     0.687437
      31     Ni       1         9.343810     8.656597    -0.000408     0.687213
      32     Ni       1         9.343721     8.656020     0.000260     0.687701
 # Total charge and spin      298.999965   277.000035    -0.000000    21.999930

 !-----------------------------------------------------------------------------!

 !-----------------------------------------------------------------------------!
                           Hirshfeld Charges

  #Atom  Element  Kind  Ref Charge     Population       Spin moment  Net charge
      1       Ni     1      18.000    9.344   8.656            0.688      0.000
      2       Ni     1      18.000    9.344   8.656            0.688      0.000
      3       Ni     1      18.000    9.344   8.656            0.688      0.000
      4       Ni     1      18.000    9.344   8.656            0.688      0.000
      5       Ni     1      18.000    9.344   8.656            0.688      0.000
      6       Ni     1      18.000    9.344   8.656            0.688      0.000
      7       Ni     1      18.000    9.344   8.656            0.688      0.000
      8       Ni     1      18.000    9.344   8.656            0.688      0.000
      9       Ni     1      18.000    9.344   8.656            0.687     -0.000
     10       Ni     1      18.000    9.344   8.656            0.688      0.000
     11       Ni     1      18.000    9.344   8.656            0.687     -0.000
     12       Ni     1      18.000    9.344   8.656            0.688      0.000
     13       Ni     1      18.000    9.344   8.656            0.688     -0.000
     14       Ni     1      18.000    9.344   8.656            0.688      0.000
     15       Ni     1      18.000    9.344   8.656            0.687      0.000
     16       Ni     1      18.000    9.344   8.656            0.688      0.000
     17       Ni     1      18.000    9.344   8.656            0.687     -0.000
     18       Ni     1      18.000    9.344   8.657            0.687     -0.000
     19       Ni     1      18.000    9.344   8.656            0.687     -0.000
     20       Ni     1      18.000    9.344   8.656            0.688     -0.000
     21       Ni     1      18.000    9.344   8.656            0.688      0.000
     22       Ni     1      18.000    9.344   8.657            0.687     -0.000
     23       Ni     1      18.000    9.344   8.656            0.687     -0.000
     24       Ni     1      18.000    9.344   8.656            0.688      0.000
     25       Ni     1      18.000    9.344   8.656            0.687     -0.000
     26       Ni     1      18.000    9.344   8.656            0.687     -0.000
     27       Ni     1      18.000    9.344   8.657            0.687     -0.001
     28       Ni     1      18.000    9.344   8.656            0.688      0.000
     29       Ni     1      18.000    9.344   8.656            0.687     -0.000
     30       Ni     1      18.000    9.344   8.656            0.687     -0.000
     31       Ni     1      18.000    9.344   8.657            0.687     -0.000
     32       Ni     1      18.000    9.344   8.656            0.688      0.000

  Total Charge                                                           -0.000
 !-----------------------------------------------------------------------------!

 ENERGY| Total FORCE_EVAL ( QS ) energy [a.u.]:            -5417.830711299505310

 -------------------------------------------------------------------------------
 -                                                                             -
 -                                DBCSR STATISTICS                             -
 -                                                                             -
 -------------------------------------------------------------------------------
 COUNTER                                    TOTAL       BLAS       SMM       ACC
 flops    26 x    26 x    30          21415680000       0.0%    100.0%      0.0%
 flops    26 x    26 x    32         205590528000       0.0%    100.0%      0.0%
 flops inhomo. stacks                           0       0.0%      0.0%      0.0%
 flops total                       227.006208E+09       0.0%    100.0%      0.0%
 flops max/rank                      3.009552E+09       0.0%    100.0%      0.0%
 matmuls inhomo. stacks                         0       0.0%      0.0%      0.0%
 matmuls total                            5280000       0.0%    100.0%      0.0%
 number of processed stacks               1280000       0.0%    100.0%      0.0%
 average stack size                                     0.0       4.1       0.0
 marketing flops                   404.998193E+09
 -------------------------------------------------------------------------------
 # multiplications                           1000
 max memory usage/rank             231.845888E+06
 # max total images/rank                        2
 # max 3D layers                                1
 # MPI messages exchanged                 3712000
 MPI messages size (bytes):
  total size                        46.565376E+09
  min size                           0.000000E+00
  max size                          26.624000E+03
  average size                      12.544552E+03
 MPI breakdown and total messages size (bytes):
             size <=      128             1392000                        0
       128 < size <=     8192                   0                        0
      8192 < size <=    32768             2320000              46565376000
     32768 < size <=   131072                   0                        0
    131072 < size <=  4194304                   0                        0
   4194304 < size <= 16777216                   0                        0
  16777216 < size                               0                        0
 -------------------------------------------------------------------------------

 *** WARNING in dbcsr_mm.F:290 :: Using a non-square number of MPI ranks ***
 *** might lead to poor performance. Used ranks: 128 Suggested: 121 256  ***

 -------------------------------------------------------------------------------
 -                                                                             -
 -                      DBCSR MESSAGE PASSING PERFORMANCE                      -
 -                                                                             -
 -------------------------------------------------------------------------------
 ROUTINE             CALLS      AVE VOLUME [Bytes]
 MP_Bcast                3                     12.
 MP_Allreduce         7025                      8.
 MP_Alltoall         28012                  50954.
 MP_ISend            64000                   6481.
 MP_IRecv            64000                   5647.
 -------------------------------------------------------------------------------

 -------------------------------------------------------------------------------
 -                                                                             -
 -                                DBM STATISTICS                               -
 -                                                                             -
 -------------------------------------------------------------------------------
    M  x    N  x    K                                          COUNT     PERCENT
 -------------------------------------------------------------------------------

 -------------------------------------------------------------------------------
 -                                                                             -
 -                                GRID STATISTICS                              -
 -                                                                             -
 -------------------------------------------------------------------------------
 LP    KERNEL             BACKEND                              COUNT     PERCENT
 6     collocate ortho    REF                               77210112      50.02%
 6     integrate ortho    REF                               77056000      49.92%
 0     integrate general  REF                                  65536       0.04%
 0     collocate general  REF                                  36864       0.02%
 -------------------------------------------------------------------------------

 MEMORY| Estimated peak process memory [MiB]                                 224

 -------------------------------------------------------------------------------
 ----                             MULTIGRID INFO                            ----
 -------------------------------------------------------------------------------
 count for grid        1:         969696          cutoff [a.u.]          300.00
 count for grid        2:         304320          cutoff [a.u.]          100.00
 count for grid        3:         238080          cutoff [a.u.]           33.33
 count for grid        4:          65120          cutoff [a.u.]           11.11
 count for grid        5:           5120          cutoff [a.u.]            3.70
 total gridlevel count  :        1582336

 -------------------------------------------------------------------------------
 -                                                                             -
 -                         MESSAGE PASSING PERFORMANCE                         -
 -                                                                             -
 -------------------------------------------------------------------------------

 ROUTINE             CALLS      AVE VOLUME [Bytes]
 MP_Group                5
 MP_Bcast             2531                  73596.
 MP_Allreduce        12903                     95.
 MP_Sync             18021
 MP_Alltoall         33034               27070080.
 MP_SendRecv        509016                   5208.
 MP_ISendRecv       508000                   5208.
 MP_Wait            606262
 MP_comm_split        1000
 MP_ISend           206212                  38670.
 MP_IRecv           206456                  38627.
 MP_Recv               750                 133120.
 MP_Write_All            2                  19908.
 -------------------------------------------------------------------------------


 -------------------------------------------------------------------------------
 -                                                                             -
 -                           R E F E R E N C E S                               -
 -                                                                             -
 -------------------------------------------------------------------------------
 
 CP2K version 2023.1, the CP2K developers group (2023).
 CP2K is freely available from https://www.cp2k.org/ .

 Kuehne,Thomas D.; Iannuzzi,Marcella; Del Ben,Mauro;
 Rybkin,Vladimir V.; Seewald,Patrick; Stein,Frederick; Laino,Teodoro;
 Khaliullin,Rustam Z.; Schuett,Ole; Schiffmann,Florian; Golze,Dorothea;
 Wilhelm,Jan; Chulkov,Sergey; Bani-Hashemian,Mohammad Hossein;
 Weber,Valery; Borstnik,Urban; Taillefumier,Mathieu;
 Jakobovits,Alice Shoshana; Lazzaro,Alfio; Pabst,Hans; Mueller,Tiziano;
 Schade,Robert; Guidon,Manuel; Andermatt,Samuel; Holmberg,Nico;
 Schenter,Gregory K.; Hehn,Anna; Bussy,Augustin; Belleflamme,Fabian;
 Tabacchi,Gloria; Gloess,Andreas; Lass,Michael; Bethune,Iain;
 Mundy,Christopher J.; Plessl,Christian; Watkins,Matt;
 VandeVondele,Joost; Krack,Matthias; Hutter,Juerg. 
 The Journal of Chemical Physics, 152 (19), (2020). 
 CP2K: An electronic structure and molecular dynamics software package -
 Quickstep: Efficient and accurate electronic structure calculations.
 https://doi.org/10.1063/5.0007045

 Schuett, Ole; Messmer, Peter; Hutter, Juerg; VandeVondele, Joost. 
 Electronic Structure Calculations on Graphics Processing Units, John
 Wiley & Sons, Ltd, 173-190 (2016). 
 GPU-Accelerated Sparse Matrix-Matrix Multiplication for
 Linear Scaling Density Functional Theory.
 https://doi.org/10.1002/9781118670712.ch8

 Heinecke, A; Henry, G; Hutchinson, M; Pabst, H. 
 Proceedings of Intl. Supercomputing Conference, 981-991 (2016). 
 LIBXSMM: Accelerating Small Matrix Multiplications
 by Runtime Code Generation.
 https://doi.org/10.1109/SC.2016.83

 Borstnik, U; VandeVondele, J; Weber, V; Hutter, J. 
 PARALLEL COMPUTING, 40 (5-6), 47-58 (2014). 
 Sparse matrix multiplication: The distributed block-compressed sparse
 row library.
 https://doi.org/10.1016/j.parco.2014.03.012

 Hutter, J; Iannuzzi, M; Schiffmann, F; VandeVondele, J. 
 WIREs Comput Mol Sci., 4 (1), 15-25 (2014). 
 CP2K: atomistic simulations of condensed matter systems.
 https://doi.org/10.1002/wcms.1159

 Marek, A; Blum, V; Johanni, R; Havu, V; Lang, B; Auckenthaler, T;
 Heinecke, A; Bungartz, H; Lederer, H. 
 Journal of Physics: Condensed Matter, 26 (21), (2014). 
 The ELPA library: scalable parallel eigenvalue solutions for
 electronic structure
 theory and computational science.
 https://doi.org/10.1088/0953-8984/26/21/213201

 VandeVondele, J; Hutter, J. 
 JOURNAL OF CHEMICAL PHYSICS, 127 (11), 114105 (2007). 
 Gaussian basis sets for accurate calculations on molecular systems in
 gas and condensed phases.
 https://doi.org/10.1063/1.2770708

 Krack, M. 
 THEORETICAL CHEMISTRY ACCOUNTS, 114 (1-3), 145-152 (2005). 
 Pseudopotentials for H to Kr optimized for gradient-corrected
 exchange-correlation functionals.
 https://doi.org/10.1007/s00214-005-0655-y

 VandeVondele, J; Krack, M; Mohamed, F; Parrinello, M; Chassaing, T;
 Hutter, J. COMPUTER PHYSICS COMMUNICATIONS, 167 (2), 103-128 (2005). 
 QUICKSTEP: Fast and accurate density functional calculations using a
 mixed Gaussian and plane waves approach.
 https://doi.org/10.1016/j.cpc.2004.12.014

 Frigo, M; Johnson, SG. 
 PROCEEDINGS OF THE IEEE, 93 (2), 216-231 (2005). 
 The design and implementation of FFTW3.
 https://doi.org/10.1109/JPROC.2004.840301

 Hartwigsen, C; Goedecker, S; Hutter, J. 
 PHYSICAL REVIEW B, 58 (7), 3641-3662 (1998). 
 Relativistic separable dual-space Gaussian pseudopotentials from H to Rn.
 https://doi.org/10.1103/PhysRevB.58.3641

 Lippert, G; Hutter, J; Parrinello, M. 
 MOLECULAR PHYSICS, 92 (3), 477-487 (1997). 
 A hybrid Gaussian and plane wave density functional scheme.
 https://doi.org/10.1080/002689797170220

 Perdew, JP; Burke, K; Ernzerhof, M. 
 PHYSICAL REVIEW LETTERS, 77 (18), 3865-3868 (1996). 
 Generalized gradient approximation made simple.
 https://doi.org/10.1103/PhysRevLett.77.3865

 Goedecker, S; Teter, M; Hutter, J. 
 PHYSICAL REVIEW B, 54 (3), 1703-1710 (1996). 
 Separable dual-space Gaussian pseudopotentials.
 https://doi.org/10.1103/PhysRevB.54.1703


 -------------------------------------------------------------------------------
 -                                                                             -
 -                                T I M I N G                                  -
 -                                                                             -
 -------------------------------------------------------------------------------
 SUBROUTINE                       CALLS  ASD         SELF TIME        TOTAL TIME
                                MAXIMUM       AVERAGE  MAXIMUM  AVERAGE  MAXIMUM
 CP2K                                 1  1.0    0.095    0.137  276.410  276.439
 qs_energies                          1  2.0    0.001    0.002  275.502  275.503
 scf_env_do_scf                       1  3.0    0.002    0.003  273.890  273.892
 scf_env_do_scf_inner_loop          500  4.0    0.107    0.138  273.888  273.890
 qs_ks_update_qs_env                500  5.0    0.006    0.008  102.325  102.374
 rebuild_ks_matrix                  500  6.0    0.002    0.003  102.268  102.318
 qs_ks_build_kohn_sham_matrix       500  7.0    0.185    0.219  102.265  102.316
 qs_rho_update_rho_low              501  5.0    0.005    0.006   89.649   89.656
 calculate_rho_elec                1002  6.0    0.078    0.086   89.644   89.651
 sum_up_and_integrate               500  8.0    0.069    0.121   86.019   86.084
 integrate_v_rspace                1000  9.0    0.029    0.046   85.946   86.023
 qs_scf_new_mos                     500  5.0    0.009    0.012   76.576   76.770
 grid_collocate_task_list          1002  7.0   68.722   72.226   68.722   72.226
 eigensolver                       1000  6.0    0.094    0.134   71.935   71.958
 grid_integrate_task_list          1000 10.0   61.537   64.411   61.537   64.411
 cp_fm_diag_elpa                   1000  7.0    0.004    0.009   63.726   63.862
 cp_fm_redistribute_end            1000  8.0   54.883   62.926   55.134   62.935
 cp_fm_diag_elpa_base              1000  8.0    7.585   60.811    7.727   61.844
 rs_pw_transfer                   10014  9.5    0.118    0.160   31.456   33.957
 density_rs2pw                     1002  7.0    0.039    0.047   20.004   22.470
 pw_transfer                      20511 10.0    2.637    2.851   20.913   21.742
 potential_pw2rs                   1000 10.0    0.038    0.044   20.772   20.978
 fft_wrap_pw1pw2                  19511 11.1    0.083    0.099   18.244   19.283
 fft_wrap_pw1pw2_300              11503 12.4    0.388    0.472   15.070   15.711
 qs_vxc_create                      500  8.0    0.008    0.010   14.797   14.841
 xc_vxc_pw_create                   500  9.0    0.133    0.147   14.788   14.832
 fft3d_pb                         11503 13.4    3.520    3.824   12.748   13.671
 mp_waitany                       64192 11.5   10.046   12.800   10.046   12.800
 rs_pw_transfer_PW2RS_300          1002 12.0    4.089    4.720   11.762   12.166
 rs_pw_transfer_RS2PW_300          1004  9.0    2.871    3.771    9.443   11.894
 mp_alltoall_z22v                 31014 15.2    7.919    9.497    7.919    9.497
 xc_rho_set_and_dset_create         500 10.0    0.145    0.164    8.992    9.463
 xc_pw_derive                      6000 11.0    0.016    0.020    8.168    8.849
 cp_fm_cholesky_restore            3000  7.0    7.849    8.065    7.849    8.065
 mp_alltoall_d11v                 14008  9.3    4.503    6.472    4.503    6.472
 xc_pw_divergence                  1000 10.0    0.008    0.011    5.523    6.315
 rs_gather_matrices                1000 10.0    0.055    0.099    3.609    5.610
 -------------------------------------------------------------------------------

 The number of warnings for this run is : 2
 
 -------------------------------------------------------------------------------
  **** **** ******  **  PROGRAM ENDED AT                 2023-02-06 17:31:55.558
 ***** ** ***  *** **   PROGRAM RAN ON                                 nid004941
 **    ****   ******    PROGRAM RAN BY                                    cahart
 ***** **    ** ** **   PROGRAM PROCESS ID                                131280
  **** **  *******  **  PROGRAM STOPPED IN /mnt/lustre/a2fs-work2/work/e05/e05/c
                                           ahart/postdoc/masters/ni/archer2/bulk
                                           /optimise/multiplicity-65_mos-30_temp
                                           -300/search/5.0E-01_1.0E-1
