 DBCSR| CPU Multiplication driver                                           XSMM (U)
 DBCSR| Multrec recursion limit                                              512 (U)
 DBCSR| Multiplication stack size                                           1000 (D)
 DBCSR| Maximum elements for images                                    UNLIMITED (U)
 DBCSR| Multiplicative factor virtual images                                   1 (U)
 DBCSR| Use multiplication densification                                       T (D)
 DBCSR| Multiplication size stacks                                             3 (U)
 DBCSR| Use memory pool for CPU allocation                                     F (U)
 DBCSR| Number of 3D layers                                               SINGLE (U)
 DBCSR| Use MPI memory allocation                                              F (U)
 DBCSR| Use RMA algorithm                                                      F (U)
 DBCSR| Use Communication thread                                               T (U)
 DBCSR| Communication thread load                                             87 (D)
 DBCSR| MPI: My process id                                                     0
 DBCSR| MPI: Number of processes                                             128
 DBCSR| OMP: Current number of threads                                         1
 DBCSR| OMP: Max number of threads                                             1
 DBCSR| Split modifier for TAS multiplication algorithm                  1.0E+00 (U)


  **** **** ******  **  PROGRAM STARTED AT               2023-02-15 16:38:12.720
 ***** ** ***  *** **   PROGRAM STARTED ON                             nid004947
 **    ****   ******    PROGRAM STARTED BY                                cahart
 ***** **    ** ** **   PROGRAM PROCESS ID                                236374
  **** **  *******  **  PROGRAM STARTED IN /mnt/lustre/a2fs-work2/work/e05/e05/c
                                           ahart/postdoc/masters/ni/archer2/slab
                                           /optimise/magnetisation/scf_1e-4_temp
                                           -2000_mos-1000_alpha-0.08_beta-1.5_pe
                                           riodic-xyz/search/0.31_0.8

 CP2K| version string:                 CP2K version 2023.1 (Development Version)
 CP2K| source code revision number:                                  git:964cd58
 CP2K| cp2kflags: omp libint fftw3 libxc elpa parallel scalapack xsmm plumed2 mk
 CP2K|            l
 CP2K| is freely available from                            https://www.cp2k.org/
 CP2K| Program compiled at                          Mon 13 Feb 17:05:14 GMT 2023
 CP2K| Program compiled on                                                  ln01
 CP2K| Program compiled for                                              ARCHER2
 CP2K| Data directory path    /work/e05/e05/cahart/cp2k/cp2k-2023.1/cp2k-2023.1-
 CP2K| Input file name                                                  cp2k.inp

 GLOBAL| Force Environment number                                              1
 GLOBAL| Basis set file name                                        BASIS_MOLOPT
 GLOBAL| Potential file name                                      GTH_POTENTIALS
 GLOBAL| MM Potential file name                                     MM_POTENTIAL
 GLOBAL| Coordinate file name                                      __STD_INPUT__
 GLOBAL| Method name                                                        CP2K
 GLOBAL| Project name                                                    Ni_bulk
 GLOBAL| Run type                                                         ENERGY
 GLOBAL| FFT library                                                       FFTW3
 GLOBAL| Diagonalization library                                            ELPA
 GLOBAL| DGEMM library                                                      BLAS
 GLOBAL| Minimum number of eigenvectors for ELPA usage                        16
 GLOBAL| Orthonormality check for eigenvectors                          DISABLED
 GLOBAL| Matrix multiplication library                                 ScaLAPACK
 GLOBAL| All-to-all communication in single precision                          F
 GLOBAL| FFTs using library dependent lengths                                  F
 GLOBAL| Grid backend                                                       AUTO
 GLOBAL| Global print level                                               MEDIUM
 GLOBAL| MPI I/O enabled                                                       T
 GLOBAL| Total number of message passing processes                           128
 GLOBAL| Number of threads for this process                                    1
 GLOBAL| This output is from process                                           0
 GLOBAL| Stack size for threads created by OpenMP (OMP_STACKSIZE)        default
 GLOBAL| CPU model name                          AMD EPYC 7742 64-Core Processor
 GLOBAL| CPUID                                                              1002

 MEMORY| system memory details [Kb]
 MEMORY|                        rank 0           min           max       average
 MEMORY| MemTotal            263528088     263528088     263528088     263528088
 MEMORY| MemFree             239078420     239078420     239078420     239078420
 MEMORY| Buffers                 37508         37508         37508         37508
 MEMORY| Cached                 673152        673152        673152        673152
 MEMORY| Slab                  1492700       1492700       1492700       1492700
 MEMORY| SReclaimable           104564        104564        104564        104564
 MEMORY| MemLikelyFree       239893644     239893644     239893644     239893644


 *** Fundamental physical constants (SI units) ***

 *** Literature: B. J. Mohr and B. N. Taylor,
 ***             CODATA recommended values of the fundamental physical
 ***             constants: 2006, Web Version 5.1
 ***             http://physics.nist.gov/constants

 Speed of light in vacuum [m/s]                             2.99792458000000E+08
 Magnetic constant or permeability of vacuum [N/A**2]       1.25663706143592E-06
 Electric constant or permittivity of vacuum [F/m]          8.85418781762039E-12
 Planck constant (h) [J*s]                                  6.62606896000000E-34
 Planck constant (h-bar) [J*s]                              1.05457162825177E-34
 Elementary charge [C]                                      1.60217648700000E-19
 Electron mass [kg]                                         9.10938215000000E-31
 Electron g factor [ ]                                     -2.00231930436220E+00
 Proton mass [kg]                                           1.67262163700000E-27
 Fine-structure constant                                    7.29735253760000E-03
 Rydberg constant [1/m]                                     1.09737315685270E+07
 Avogadro constant [1/mol]                                  6.02214179000000E+23
 Boltzmann constant [J/K]                                   1.38065040000000E-23
 Atomic mass unit [kg]                                      1.66053878200000E-27
 Bohr radius [m]                                            5.29177208590000E-11

 *** Conversion factors ***

 [u] -> [a.u.]                                              1.82288848426455E+03
 [Angstrom] -> [Bohr] = [a.u.]                              1.88972613288564E+00
 [a.u.] = [Bohr] -> [Angstrom]                              5.29177208590000E-01
 [a.u.] -> [s]                                              2.41888432650478E-17
 [a.u.] -> [fs]                                             2.41888432650478E-02
 [a.u.] -> [J]                                              4.35974393937059E-18
 [a.u.] -> [N]                                              8.23872205491840E-08
 [a.u.] -> [K]                                              3.15774647902944E+05
 [a.u.] -> [kJ/mol]                                         2.62549961709828E+03
 [a.u.] -> [kcal/mol]                                       6.27509468713739E+02
 [a.u.] -> [Pa]                                             2.94210107994716E+13
 [a.u.] -> [bar]                                            2.94210107994716E+08
 [a.u.] -> [atm]                                            2.90362800883016E+08
 [a.u.] -> [eV]                                             2.72113838565563E+01
 [a.u.] -> [Hz]                                             6.57968392072181E+15
 [a.u.] -> [1/cm] (wave numbers)                            2.19474631370540E+05
 [a.u./Bohr**2] -> [1/cm]                                   5.14048714338585E+03
 

 CELL_TOP| Volume [angstrom^3]:                                       983.249569
 CELL_TOP| Vector a [angstrom     7.012     0.000     0.000   |a| =     7.011596
 CELL_TOP| Vector b [angstrom     0.000     7.012     0.000   |b| =     7.011596
 CELL_TOP| Vector c [angstrom     0.000     0.000    20.000   |c| =    20.000000
 CELL_TOP| Angle (b,c), alpha [degree]:                                90.000000
 CELL_TOP| Angle (a,c), beta  [degree]:                                90.000000
 CELL_TOP| Angle (a,b), gamma [degree]:                                90.000000
 CELL_TOP| Numerically orthorhombic:                                         YES
 CELL_TOP| Periodicity                                                       XYZ

 GENERATE|  Preliminary Number of Bonds generated:                             0
 GENERATE|  Achieved consistency in connectivity generation.

 CELL| Volume [angstrom^3]:                                           983.249569
 CELL| Vector a [angstrom]:       7.012     0.000     0.000   |a| =     7.011596
 CELL| Vector b [angstrom]:       0.000     7.012     0.000   |b| =     7.011596
 CELL| Vector c [angstrom]:       0.000     0.000    20.000   |c| =    20.000000
 CELL| Angle (b,c), alpha [degree]:                                    90.000000
 CELL| Angle (a,c), beta  [degree]:                                    90.000000
 CELL| Angle (a,b), gamma [degree]:                                    90.000000
 CELL| Numerically orthorhombic:                                             YES
 CELL| Periodicity                                                           XYZ

 CELL_REF| Volume [angstrom^3]:                                       983.249569
 CELL_REF| Vector a [angstrom     7.012     0.000     0.000   |a| =     7.011596
 CELL_REF| Vector b [angstrom     0.000     7.012     0.000   |b| =     7.011596
 CELL_REF| Vector c [angstrom     0.000     0.000    20.000   |c| =    20.000000
 CELL_REF| Angle (b,c), alpha [degree]:                                90.000000
 CELL_REF| Angle (a,c), beta  [degree]:                                90.000000
 CELL_REF| Angle (a,b), gamma [degree]:                                90.000000
 CELL_REF| Numerically orthorhombic:                                         YES
 CELL_REF| Periodicity                                                       XYZ

 *** WARNING in cryssym.F:165 :: Symmetry library SPGLIB not available ***


 *******************************************************************************
                                    Kpoints
 *******************************************************************************
 BRILLOUIN| K-point scheme                                        Monkhorst-Pack
 BRILLOUIN| K-Point grid                                             4    4    1
 BRILLOUIN| Accuracy in Symmetry determination                      0.100000E-05
 BRILLOUIN| K-Point point group symmetrization                               OFF
 BRILLOUIN| Wavefunction type                                            COMPLEX
 BRILLOUIN| List of Kpoints [2 Pi/Bohr]                                        8
 BRILLOUIN| Number           Weight            X              Y              Z
 BRILLOUIN|     1           0.12500       -0.37500       -0.37500        0.00000
 BRILLOUIN|     2           0.12500       -0.37500       -0.12500        0.00000
 BRILLOUIN|     3           0.12500       -0.37500        0.12500        0.00000
 BRILLOUIN|     4           0.12500       -0.37500        0.37500        0.00000
 BRILLOUIN|     5           0.12500       -0.12500       -0.37500        0.00000
 BRILLOUIN|     6           0.12500       -0.12500       -0.12500        0.00000
 BRILLOUIN|     7           0.12500       -0.12500        0.12500        0.00000
 BRILLOUIN|     8           0.12500       -0.12500        0.37500        0.00000
 *******************************************************************************

 *******************************************************************************
 *******************************************************************************
 **                                                                           **
 **     #####                         ##              ##                      **
 **    ##   ##            ##          ##              ##                      **
 **   ##     ##                       ##            ######                    **
 **   ##     ##  ##   ##  ##   #####  ##  ##   ####   ##    #####    #####    **
 **   ##     ##  ##   ##  ##  ##      ## ##   ##      ##   ##   ##  ##   ##   **
 **   ##  ## ##  ##   ##  ##  ##      ####     ###    ##   ######   ######    **
 **    ##  ###   ##   ##  ##  ##      ## ##      ##   ##   ##       ##        **
 **     #######   #####   ##   #####  ##  ##  ####    ##    #####   ##        **
 **           ##                                                    ##        **
 **                                                                           **
 **                                                ... make the atoms dance   **
 **                                                                           **
 **            Copyright (C) by CP2K developers group (2000-2023)             **
 **                      J. Chem. Phys. 152, 194103 (2020)                    **
 **                                                                           **
 *******************************************************************************

 *** WARNING in qs_environment.F:1456 :: Number of electrons will be ***
 *** overwritten by NELEC_ALPHA and NELEC_BETA, multiplicity will be ***
 *** ignored.                                                        ***

 Number of electrons should be                                               576
 Sum of NELEC_ALPHA and NELEC_BETA is                                    576.000

 *** WARNING in qs_environment.F:1488 :: NELEC_ALPHA is not an integer, ***
 *** many features will not be supported.                               ***


 *** WARNING in qs_environment.F:1500 :: NELEC_BETA is not an integer, ***
 *** many features will not be supported.                              ***


 *** WARNING in qs_environment.F:1532 :: More ADDED_MOs requested for beta ***
 *** spin than available.                                                  ***


 *** WARNING in qs_environment.F:1548 :: More added MOs requested than     ***
 *** available. The full set of unoccupied MOs will be used. Use           ***
 *** 'ADDED_MOS -1' to always use all available MOs and to get rid of this ***
 *** warning.                                                              ***


 DFT| Spin unrestricted (spin-polarized) Kohn-Sham calculation               UKS
 DFT| Multiplicity                                                             1
 DFT| Number of spin states                                                    2
 DFT| Charge                                                                   0
 DFT| Self-interaction correction (SIC)                                       NO
 DFT| Cutoffs: density                                              1.000000E-10
 DFT|          gradient                                             1.000000E-10
 DFT|          tau                                                  1.000000E-10
 DFT|          cutoff_smoothing_range                               0.000000E+00
 DFT| XC density smoothing                                                  NONE
 DFT| XC derivatives                                                          PW

 FUNCTIONAL| PBE:
 FUNCTIONAL| J.P.Perdew, K.Burke, M.Ernzerhof, Phys. Rev. Letter, vol. 77, n 18,
 FUNCTIONAL|  pp. 3865-3868, (1996){spin polarized}                             

 vdW POTENTIAL|                                                   Pair Potential
 vdW POTENTIAL|          DFT-D3 (Version 3.1)
 vdW POTENTIAL|          Potential Form: S. Grimme et al, JCP 132: 154104 (2010)
 vdW POTENTIAL|          Zero Damping
 vdW POTENTIAL|          Cutoff Radius [Bohr]:                             20.00
 vdW POTENTIAL|          s6 Scaling Factor:                               1.0000
 vdW POTENTIAL|          sr6 Scaling Factor:                              1.2170
 vdW POTENTIAL|          s8 Scaling Factor:                               0.7220
 vdW POTENTIAL|          Cutoff for CN calculation:                   0.1000E-05

 QS| Method:                                                                 GPW
 QS| Density plane wave grid type                        NON-SPHERICAL FULLSPACE
 QS| Number of grid levels:                                                    5
 QS| Density cutoff [a.u.]:                                                300.0
 QS| Multi grid cutoff [a.u.]: 1) grid level                               300.0
 QS|                           2) grid level                               100.0
 QS|                           3) grid level                                33.3
 QS|                           4) grid level                                11.1
 QS|                           5) grid level                                 3.7
 QS| Grid level progression factor:                                          3.0
 QS| Relative density cutoff [a.u.]:                                        30.0
 QS| Interaction thresholds: eps_pgf_orb:                                1.0E-06
 QS|                         eps_filter_matrix:                          0.0E+00
 QS|                         eps_core_charge:                            1.0E-14
 QS|                         eps_rho_gspace:                             1.0E-12
 QS|                         eps_rho_rspace:                             1.0E-12
 QS|                         eps_gvg_rspace:                             1.0E-06
 QS|                         eps_ppl:                                    1.0E-02
 QS|                         eps_ppnl:                                   1.0E-08


 ATOMIC KIND INFORMATION

  1. Atomic kind: Ni_i                                  Number of atoms:      16

     Orbital Basis Set                                        DZVP-MOLOPT-SR-GTH

       Number of orbital shell sets:                                           1
       Number of orbital shells:                                               8
       Number of primitive Cartesian functions:                                6
       Number of Cartesian basis functions:                                   31
       Number of spherical basis functions:                                   26
       Norm type:                                                              2

       Normalised Cartesian orbitals:

                        Set   Shell   Orbital            Exponent    Coefficient

                          1       1    2s               10.077428      -0.684558
                                                         5.847736      -0.844524
                                                         2.494033       1.088856
                                                         0.988355       0.395503
                                                         0.344978       0.010224
                                                         0.099466      -0.003250

                          1       2    3s               10.077428       0.096747
                                                         5.847736       0.162504
                                                         2.494033      -0.297192
                                                         0.988355      -0.319752
                                                         0.344978       0.088318
                                                         0.099466       0.118587

                          1       3    4s               10.077428       0.036437
                                                         5.847736      -0.381480
                                                         2.494033       0.003759
                                                         0.988355      -1.048256
                                                         0.344978       0.855825
                                                         0.099466      -0.176350

                          1       4    3px              10.077428      -3.133913
                                                         5.847736       3.027656
                                                         2.494033       2.353227
                                                         0.988355       0.554184
                                                         0.344978       0.019462
                                                         0.099466      -0.000291
                          1       4    3py              10.077428      -3.133913
                                                         5.847736       3.027656
                                                         2.494033       2.353227
                                                         0.988355       0.554184
                                                         0.344978       0.019462
                                                         0.099466      -0.000291
                          1       4    3pz              10.077428      -3.133913
                                                         5.847736       3.027656
                                                         2.494033       2.353227
                                                         0.988355       0.554184
                                                         0.344978       0.019462
                                                         0.099466      -0.000291

                          1       5    4px              10.077428      -0.112729
                                                         5.847736      -0.114008
                                                         2.494033      -0.347303
                                                         0.988355      -0.110323
                                                         0.344978       0.154096
                                                         0.099466       0.058386
                          1       5    4py              10.077428      -0.112729
                                                         5.847736      -0.114008
                                                         2.494033      -0.347303
                                                         0.988355      -0.110323
                                                         0.344978       0.154096
                                                         0.099466       0.058386
                          1       5    4pz              10.077428      -0.112729
                                                         5.847736      -0.114008
                                                         2.494033      -0.347303
                                                         0.988355      -0.110323
                                                         0.344978       0.154096
                                                         0.099466       0.058386

                          1       6    4dx2             10.077428       8.232726
                                                         5.847736       9.105758
                                                         2.494033       2.849835
                                                         0.988355       0.554319
                                                         0.344978       0.067245
                                                         0.099466       0.001940
                          1       6    4dxy             10.077428      14.259500
                                                         5.847736      15.771636
                                                         2.494033       4.936060
                                                         0.988355       0.960109
                                                         0.344978       0.116472
                                                         0.099466       0.003360
                          1       6    4dxz             10.077428      14.259500
                                                         5.847736      15.771636
                                                         2.494033       4.936060
                                                         0.988355       0.960109
                                                         0.344978       0.116472
                                                         0.099466       0.003360
                          1       6    4dy2             10.077428       8.232726
                                                         5.847736       9.105758
                                                         2.494033       2.849835
                                                         0.988355       0.554319
                                                         0.344978       0.067245
                                                         0.099466       0.001940
                          1       6    4dyz             10.077428      14.259500
                                                         5.847736      15.771636
                                                         2.494033       4.936060
                                                         0.988355       0.960109
                                                         0.344978       0.116472
                                                         0.099466       0.003360
                          1       6    4dz2             10.077428       8.232726
                                                         5.847736       9.105758
                                                         2.494033       2.849835
                                                         0.988355       0.554319
                                                         0.344978       0.067245
                                                         0.099466       0.001940

                          1       7    5dx2             10.077428      -2.715373
                                                         5.847736      -4.020640
                                                         2.494033      -1.397569
                                                         0.988355      -0.076143
                                                         0.344978       0.033435
                                                         0.099466       0.026032
                          1       7    5dxy             10.077428      -4.703164
                                                         5.847736      -6.963952
                                                         2.494033      -2.420661
                                                         0.988355      -0.131883
                                                         0.344978       0.057911
                                                         0.099466       0.045088
                          1       7    5dxz             10.077428      -4.703164
                                                         5.847736      -6.963952
                                                         2.494033      -2.420661
                                                         0.988355      -0.131883
                                                         0.344978       0.057911
                                                         0.099466       0.045088
                          1       7    5dy2             10.077428      -2.715373
                                                         5.847736      -4.020640
                                                         2.494033      -1.397569
                                                         0.988355      -0.076143
                                                         0.344978       0.033435
                                                         0.099466       0.026032
                          1       7    5dyz             10.077428      -4.703164
                                                         5.847736      -6.963952
                                                         2.494033      -2.420661
                                                         0.988355      -0.131883
                                                         0.344978       0.057911
                                                         0.099466       0.045088
                          1       7    5dz2             10.077428      -2.715373
                                                         5.847736      -4.020640
                                                         2.494033      -1.397569
                                                         0.988355      -0.076143
                                                         0.344978       0.033435
                                                         0.099466       0.026032

                          1       8    5fx3             10.077428      -0.467694
                                                         5.847736       0.618100
                                                         2.494033       0.066069
                                                         0.988355       0.262898
                                                         0.344978       0.004720
                                                         0.099466       0.007748
                          1       8    5fx2y            10.077428      -1.045795
                                                         5.847736       1.382114
                                                         2.494033       0.147734
                                                         0.988355       0.587859
                                                         0.344978       0.010555
                                                         0.099466       0.017325
                          1       8    5fx2z            10.077428      -1.045795
                                                         5.847736       1.382114
                                                         2.494033       0.147734
                                                         0.988355       0.587859
                                                         0.344978       0.010555
                                                         0.099466       0.017325
                          1       8    5fxy2            10.077428      -1.045795
                                                         5.847736       1.382114
                                                         2.494033       0.147734
                                                         0.988355       0.587859
                                                         0.344978       0.010555
                                                         0.099466       0.017325
                          1       8    5fxyz            10.077428      -1.811371
                                                         5.847736       2.393892
                                                         2.494033       0.255883
                                                         0.988355       1.018201
                                                         0.344978       0.018282
                                                         0.099466       0.030008
                          1       8    5fxz2            10.077428      -1.045795
                                                         5.847736       1.382114
                                                         2.494033       0.147734
                                                         0.988355       0.587859
                                                         0.344978       0.010555
                                                         0.099466       0.017325
                          1       8    5fy3             10.077428      -0.467694
                                                         5.847736       0.618100
                                                         2.494033       0.066069
                                                         0.988355       0.262898
                                                         0.344978       0.004720
                                                         0.099466       0.007748
                          1       8    5fy2z            10.077428      -1.045795
                                                         5.847736       1.382114
                                                         2.494033       0.147734
                                                         0.988355       0.587859
                                                         0.344978       0.010555
                                                         0.099466       0.017325
                          1       8    5fyz2            10.077428      -1.045795
                                                         5.847736       1.382114
                                                         2.494033       0.147734
                                                         0.988355       0.587859
                                                         0.344978       0.010555
                                                         0.099466       0.017325
                          1       8    5fz3             10.077428      -0.467694
                                                         5.847736       0.618100
                                                         2.494033       0.066069
                                                         0.988355       0.262898
                                                         0.344978       0.004720
                                                         0.099466       0.007748

       Atomic covalent radius [Angstrom]:                                  1.150

       Atomic van der Waals radius [Angstrom]:                             1.630

     GTH Potential information for                                   GTH-PBE-q18

       Description:                       Goedecker-Teter-Hutter pseudopotential
                                           Goedecker et al., PRB 54, 1703 (1996)
                                          Hartwigsen et al., PRB 58, 3641 (1998)
                                                      Krack, TCA 114, 145 (2005)

       Gaussian exponent of the core charge distribution:               4.081633
       Electronic configuration (s p d ...):                           4   6   8

       Parameters of the local part of the GTH pseudopotential:

                          rloc        C1          C2          C3          C4
                        0.350000    2.102166    0.648484

       Parameters of the non-local part of the GTH pseudopotential:

                   l      r(l)      h(i,j,l)

                   0    0.261295    0.622658    9.970227
                                    9.970227  -12.871507
                   1    0.224253  -11.142708   12.429566
                                   12.429566  -14.706861
                   2    0.215348  -12.628146

  2. Atomic kind: Ni_b                                  Number of atoms:      16

     Orbital Basis Set                                        DZVP-MOLOPT-SR-GTH

       Number of orbital shell sets:                                           1
       Number of orbital shells:                                               8
       Number of primitive Cartesian functions:                                6
       Number of Cartesian basis functions:                                   31
       Number of spherical basis functions:                                   26
       Norm type:                                                              2

       Normalised Cartesian orbitals:

                        Set   Shell   Orbital            Exponent    Coefficient

                          1       1    2s               10.077428      -0.684558
                                                         5.847736      -0.844524
                                                         2.494033       1.088856
                                                         0.988355       0.395503
                                                         0.344978       0.010224
                                                         0.099466      -0.003250

                          1       2    3s               10.077428       0.096747
                                                         5.847736       0.162504
                                                         2.494033      -0.297192
                                                         0.988355      -0.319752
                                                         0.344978       0.088318
                                                         0.099466       0.118587

                          1       3    4s               10.077428       0.036437
                                                         5.847736      -0.381480
                                                         2.494033       0.003759
                                                         0.988355      -1.048256
                                                         0.344978       0.855825
                                                         0.099466      -0.176350

                          1       4    3px              10.077428      -3.133913
                                                         5.847736       3.027656
                                                         2.494033       2.353227
                                                         0.988355       0.554184
                                                         0.344978       0.019462
                                                         0.099466      -0.000291
                          1       4    3py              10.077428      -3.133913
                                                         5.847736       3.027656
                                                         2.494033       2.353227
                                                         0.988355       0.554184
                                                         0.344978       0.019462
                                                         0.099466      -0.000291
                          1       4    3pz              10.077428      -3.133913
                                                         5.847736       3.027656
                                                         2.494033       2.353227
                                                         0.988355       0.554184
                                                         0.344978       0.019462
                                                         0.099466      -0.000291

                          1       5    4px              10.077428      -0.112729
                                                         5.847736      -0.114008
                                                         2.494033      -0.347303
                                                         0.988355      -0.110323
                                                         0.344978       0.154096
                                                         0.099466       0.058386
                          1       5    4py              10.077428      -0.112729
                                                         5.847736      -0.114008
                                                         2.494033      -0.347303
                                                         0.988355      -0.110323
                                                         0.344978       0.154096
                                                         0.099466       0.058386
                          1       5    4pz              10.077428      -0.112729
                                                         5.847736      -0.114008
                                                         2.494033      -0.347303
                                                         0.988355      -0.110323
                                                         0.344978       0.154096
                                                         0.099466       0.058386

                          1       6    4dx2             10.077428       8.232726
                                                         5.847736       9.105758
                                                         2.494033       2.849835
                                                         0.988355       0.554319
                                                         0.344978       0.067245
                                                         0.099466       0.001940
                          1       6    4dxy             10.077428      14.259500
                                                         5.847736      15.771636
                                                         2.494033       4.936060
                                                         0.988355       0.960109
                                                         0.344978       0.116472
                                                         0.099466       0.003360
                          1       6    4dxz             10.077428      14.259500
                                                         5.847736      15.771636
                                                         2.494033       4.936060
                                                         0.988355       0.960109
                                                         0.344978       0.116472
                                                         0.099466       0.003360
                          1       6    4dy2             10.077428       8.232726
                                                         5.847736       9.105758
                                                         2.494033       2.849835
                                                         0.988355       0.554319
                                                         0.344978       0.067245
                                                         0.099466       0.001940
                          1       6    4dyz             10.077428      14.259500
                                                         5.847736      15.771636
                                                         2.494033       4.936060
                                                         0.988355       0.960109
                                                         0.344978       0.116472
                                                         0.099466       0.003360
                          1       6    4dz2             10.077428       8.232726
                                                         5.847736       9.105758
                                                         2.494033       2.849835
                                                         0.988355       0.554319
                                                         0.344978       0.067245
                                                         0.099466       0.001940

                          1       7    5dx2             10.077428      -2.715373
                                                         5.847736      -4.020640
                                                         2.494033      -1.397569
                                                         0.988355      -0.076143
                                                         0.344978       0.033435
                                                         0.099466       0.026032
                          1       7    5dxy             10.077428      -4.703164
                                                         5.847736      -6.963952
                                                         2.494033      -2.420661
                                                         0.988355      -0.131883
                                                         0.344978       0.057911
                                                         0.099466       0.045088
                          1       7    5dxz             10.077428      -4.703164
                                                         5.847736      -6.963952
                                                         2.494033      -2.420661
                                                         0.988355      -0.131883
                                                         0.344978       0.057911
                                                         0.099466       0.045088
                          1       7    5dy2             10.077428      -2.715373
                                                         5.847736      -4.020640
                                                         2.494033      -1.397569
                                                         0.988355      -0.076143
                                                         0.344978       0.033435
                                                         0.099466       0.026032
                          1       7    5dyz             10.077428      -4.703164
                                                         5.847736      -6.963952
                                                         2.494033      -2.420661
                                                         0.988355      -0.131883
                                                         0.344978       0.057911
                                                         0.099466       0.045088
                          1       7    5dz2             10.077428      -2.715373
                                                         5.847736      -4.020640
                                                         2.494033      -1.397569
                                                         0.988355      -0.076143
                                                         0.344978       0.033435
                                                         0.099466       0.026032

                          1       8    5fx3             10.077428      -0.467694
                                                         5.847736       0.618100
                                                         2.494033       0.066069
                                                         0.988355       0.262898
                                                         0.344978       0.004720
                                                         0.099466       0.007748
                          1       8    5fx2y            10.077428      -1.045795
                                                         5.847736       1.382114
                                                         2.494033       0.147734
                                                         0.988355       0.587859
                                                         0.344978       0.010555
                                                         0.099466       0.017325
                          1       8    5fx2z            10.077428      -1.045795
                                                         5.847736       1.382114
                                                         2.494033       0.147734
                                                         0.988355       0.587859
                                                         0.344978       0.010555
                                                         0.099466       0.017325
                          1       8    5fxy2            10.077428      -1.045795
                                                         5.847736       1.382114
                                                         2.494033       0.147734
                                                         0.988355       0.587859
                                                         0.344978       0.010555
                                                         0.099466       0.017325
                          1       8    5fxyz            10.077428      -1.811371
                                                         5.847736       2.393892
                                                         2.494033       0.255883
                                                         0.988355       1.018201
                                                         0.344978       0.018282
                                                         0.099466       0.030008
                          1       8    5fxz2            10.077428      -1.045795
                                                         5.847736       1.382114
                                                         2.494033       0.147734
                                                         0.988355       0.587859
                                                         0.344978       0.010555
                                                         0.099466       0.017325
                          1       8    5fy3             10.077428      -0.467694
                                                         5.847736       0.618100
                                                         2.494033       0.066069
                                                         0.988355       0.262898
                                                         0.344978       0.004720
                                                         0.099466       0.007748
                          1       8    5fy2z            10.077428      -1.045795
                                                         5.847736       1.382114
                                                         2.494033       0.147734
                                                         0.988355       0.587859
                                                         0.344978       0.010555
                                                         0.099466       0.017325
                          1       8    5fyz2            10.077428      -1.045795
                                                         5.847736       1.382114
                                                         2.494033       0.147734
                                                         0.988355       0.587859
                                                         0.344978       0.010555
                                                         0.099466       0.017325
                          1       8    5fz3             10.077428      -0.467694
                                                         5.847736       0.618100
                                                         2.494033       0.066069
                                                         0.988355       0.262898
                                                         0.344978       0.004720
                                                         0.099466       0.007748

       Atomic covalent radius [Angstrom]:                                  1.150

       Atomic van der Waals radius [Angstrom]:                             1.630

     GTH Potential information for                                   GTH-PBE-q18

       Description:                       Goedecker-Teter-Hutter pseudopotential
                                           Goedecker et al., PRB 54, 1703 (1996)
                                          Hartwigsen et al., PRB 58, 3641 (1998)
                                                      Krack, TCA 114, 145 (2005)

       Gaussian exponent of the core charge distribution:               4.081633
       Electronic configuration (s p d ...):                           4   6   8

       Parameters of the local part of the GTH pseudopotential:

                          rloc        C1          C2          C3          C4
                        0.350000    2.102166    0.648484

       Parameters of the non-local part of the GTH pseudopotential:

                   l      r(l)      h(i,j,l)

                   0    0.261295    0.622658    9.970227
                                    9.970227  -12.871507
                   1    0.224253  -11.142708   12.429566
                                   12.429566  -14.706861
                   2    0.215348  -12.628146


 MOLECULE KIND INFORMATION


 All atoms are their own molecule, skipping detailed information


 TOTAL NUMBERS AND MAXIMUM NUMBERS

  Total number of            - Atomic kinds:                                   2
                             - Atoms:                                         32
                             - Shell sets:                                    32
                             - Shells:                                       256
                             - Primitive Cartesian functions:                192
                             - Cartesian basis functions:                    992
                             - Spherical basis functions:                    832

  Maximum angular momentum of- Orbital basis functions:                        3
                             - Local part of the GTH pseudopotential:          2
                             - Non-local part of the GTH pseudopotential:      3


 MODULE QUICKSTEP: ATOMIC COORDINATES IN ANGSTROM

   Atom Kind Element         X             Y             Z       Z(eff)     Mass
      1    1 Ni   28      0.876298      0.876298      7.370500  18.0000  58.6934
      2    1 Ni   28      0.876298      4.382298      7.370500  18.0000  58.6934
      3    1 Ni   28      2.629298      2.629298      7.370500  18.0000  58.6934
      4    1 Ni   28      2.629298      6.135298      7.370500  18.0000  58.6934
      5    1 Ni   28      4.382298      0.876298      7.370500  18.0000  58.6934
      6    1 Ni   28      4.382298      4.382298      7.370500  18.0000  58.6934
      7    1 Ni   28      6.135298      2.629298      7.370500  18.0000  58.6934
      8    1 Ni   28      6.135298      6.135298      7.370500  18.0000  58.6934
      9    2 Ni   28      0.876298      2.629298      9.123500  18.0000  58.6934
     10    2 Ni   28      0.876298      6.135298      9.123500  18.0000  58.6934
     11    2 Ni   28      2.629298      0.876298      9.123500  18.0000  58.6934
     12    2 Ni   28      2.629298      4.382298      9.123500  18.0000  58.6934
     13    2 Ni   28      4.382298      2.629298      9.123500  18.0000  58.6934
     14    2 Ni   28      4.382298      6.135298      9.123500  18.0000  58.6934
     15    2 Ni   28      6.135298      0.876298      9.123500  18.0000  58.6934
     16    2 Ni   28      6.135298      4.382298      9.123500  18.0000  58.6934
     17    2 Ni   28      0.876298      0.876298     10.876500  18.0000  58.6934
     18    2 Ni   28      0.876298      4.382298     10.876500  18.0000  58.6934
     19    2 Ni   28      2.629298      2.629298     10.876500  18.0000  58.6934
     20    2 Ni   28      2.629298      6.135298     10.876500  18.0000  58.6934
     21    2 Ni   28      4.382298      0.876298     10.876500  18.0000  58.6934
     22    2 Ni   28      4.382298      4.382298     10.876500  18.0000  58.6934
     23    2 Ni   28      6.135298      2.629298     10.876500  18.0000  58.6934
     24    2 Ni   28      6.135298      6.135298     10.876500  18.0000  58.6934
     25    1 Ni   28      0.876298      2.629298     12.629500  18.0000  58.6934
     26    1 Ni   28      0.876298      6.135298     12.629500  18.0000  58.6934
     27    1 Ni   28      2.629298      0.876298     12.629500  18.0000  58.6934
     28    1 Ni   28      2.629298      4.382298     12.629500  18.0000  58.6934
     29    1 Ni   28      4.382298      2.629298     12.629500  18.0000  58.6934
     30    1 Ni   28      4.382298      6.135298     12.629500  18.0000  58.6934
     31    1 Ni   28      6.135298      0.876298     12.629500  18.0000  58.6934
     32    1 Ni   28      6.135298      4.382298     12.629500  18.0000  58.6934



 SCF PARAMETERS         Density guess:                                    ATOMIC
                        --------------------------------------------------------
                        max_scf:                                             500
                        max_scf_history:                                       0
                        max_diis:                                              4
                        --------------------------------------------------------
                        eps_scf:                                        1.00E-04
                        eps_scf_history:                                0.00E+00
                        eps_diis:                                       1.00E-01
                        eps_eigval:                                     1.00E-05
                        --------------------------------------------------------
                        level_shift [a.u.]:                             0.000000
                        added MOs                                       535  552
                        --------------------------------------------------------
                        Mixing method:                            BROYDEN_MIXING
                                                charge density mixing in g-space
                        --------------------------------------------------------
                        Smear method:                                FERMI_DIRAC
                        Electronic temperature [K]:                       2000.0
                        Electronic temperature [a.u.]:                  6.33E-03
                        Accuracy threshold:                             1.00E-10
                        --------------------------------------------------------
                        No outer SCF

 PW_GRID| Information for grid number                                          1
 PW_GRID| Grid distributed over                                   128 processors
 PW_GRID| Real space group dimensions                                     8   16
 PW_GRID| the grid is blocked:                                               YES
 PW_GRID| Cutoff [a.u.]                                                    300.0
 PW_GRID| spherical cutoff:                                                   NO
 PW_GRID|   Bounds   1            -54      53                Points:         108
 PW_GRID|   Bounds   2            -54      53                Points:         108
 PW_GRID|   Bounds   3           -150     149                Points:         300
 PW_GRID| Volume element (a.u.^3)  0.1896E-02     Volume (a.u.^3)      6635.2971
 PW_GRID| Grid span                                                    FULLSPACE
 PW_GRID|   Distribution                         Average         Max         Min
 PW_GRID|   G-Vectors                            27337.5       28728       25272
 PW_GRID|   G-Rays                                 253.1         266         234
 PW_GRID|   Real Space Points                    27337.5       28728       25272

 PW_GRID| Information for grid number                                          2
 PW_GRID| Number of the reference grid                                         1
 PW_GRID| Grid distributed over                                   128 processors
 PW_GRID| Real space group dimensions                                     8   16
 PW_GRID| the grid is blocked:                                                NO
 PW_GRID| Cutoff [a.u.]                                                    100.0
 PW_GRID| spherical cutoff:                                                   NO
 PW_GRID|   Bounds   1            -30      29                Points:          60
 PW_GRID|   Bounds   2            -30      29                Points:          60
 PW_GRID|   Bounds   3            -90      89                Points:         180
 PW_GRID| Volume element (a.u.^3)  0.1024E-01     Volume (a.u.^3)      6635.2971
 PW_GRID| Grid span                                                    FULLSPACE
 PW_GRID|   Distribution                         Average         Max         Min
 PW_GRID|   G-Vectors                             5062.5       15960           0
 PW_GRID|   G-Rays                                  84.4         266           0
 PW_GRID|   Real Space Points                     5062.5        5760        3780

 PW_GRID| Information for grid number                                          3
 PW_GRID| Number of the reference grid                                         1
 PW_GRID| Grid distributed over                                   128 processors
 PW_GRID| Real space group dimensions                                     8   16
 PW_GRID| the grid is blocked:                                                NO
 PW_GRID| Cutoff [a.u.]                                                     33.3
 PW_GRID| spherical cutoff:                                                   NO
 PW_GRID|   Bounds   1            -18      17                Points:          36
 PW_GRID|   Bounds   2            -18      17                Points:          36
 PW_GRID|   Bounds   3            -50      49                Points:         100
 PW_GRID| Volume element (a.u.^3)  0.5120E-01     Volume (a.u.^3)      6635.2971
 PW_GRID| Grid span                                                    FULLSPACE
 PW_GRID|   Distribution                         Average         Max         Min
 PW_GRID|   G-Vectors                             1012.5        9576           0
 PW_GRID|   G-Rays                                  28.1         266           0
 PW_GRID|   Real Space Points                     1012.5        1500         800

 PW_GRID| Information for grid number                                          4
 PW_GRID| Number of the reference grid                                         1
 PW_GRID| Grid distributed over                                   128 processors
 PW_GRID| Real space group dimensions                                     8   16
 PW_GRID| the grid is blocked:                                                NO
 PW_GRID| Cutoff [a.u.]                                                     11.1
 PW_GRID| spherical cutoff:                                                   NO
 PW_GRID|   Bounds   1            -10       9                Points:          20
 PW_GRID|   Bounds   2            -10       9                Points:          20
 PW_GRID|   Bounds   3            -30      29                Points:          60
 PW_GRID| Volume element (a.u.^3)  0.2765         Volume (a.u.^3)      6635.2971
 PW_GRID| Grid span                                                    FULLSPACE
 PW_GRID|   Distribution                         Average         Max         Min
 PW_GRID|   G-Vectors                              187.5        3800           0
 PW_GRID|   G-Rays                                   9.4         190           0
 PW_GRID|   Real Space Points                      187.5         360         120

 PW_GRID| Information for grid number                                          5
 PW_GRID| Number of the reference grid                                         1
 PW_GRID| Grid distributed over                                   128 processors
 PW_GRID| Real space group dimensions                                     8   16
 PW_GRID| the grid is blocked:                                                NO
 PW_GRID| Cutoff [a.u.]                                                      3.7
 PW_GRID| spherical cutoff:                                                   NO
 PW_GRID|   Bounds   1             -6       5                Points:          12
 PW_GRID|   Bounds   2             -6       5                Points:          12
 PW_GRID|   Bounds   3            -18      17                Points:          36
 PW_GRID| Volume element (a.u.^3)   1.280         Volume (a.u.^3)      6635.2971
 PW_GRID| Grid span                                                    FULLSPACE
 PW_GRID|   Distribution                         Average         Max         Min
 PW_GRID|   G-Vectors                               40.5        1296           0
 PW_GRID|   G-Rays                                   3.4         108           0
 PW_GRID|   Real Space Points                       40.5          72           0

 POISSON| Solver                                                        PERIODIC
 POISSON| Periodicity                                                        XYZ

 RS_GRID| Information for grid number                                          1
 RS_GRID|   Bounds   1            -54      53                Points:         108
 RS_GRID|   Bounds   2            -54      53                Points:         108
 RS_GRID|   Bounds   3           -150     149                Points:         300
 RS_GRID| Real space distribution over                                  8 groups
 RS_GRID| Real space distribution along direction                              2
 RS_GRID| Border size                                                         28
 RS_GRID| Real space distribution over                                 16 groups
 RS_GRID| Real space distribution along direction                              3
 RS_GRID| Border size                                                         28
 RS_GRID|   Distribution                         Average         Max         Min
 RS_GRID|   Planes                                  69.5          70          69
 RS_GRID|   Distribution                         Average         Max         Min
 RS_GRID|   Planes                                  74.8          75          74

 RS_GRID| Information for grid number                                          2
 RS_GRID|   Bounds   1            -30      29                Points:          60
 RS_GRID|   Bounds   2            -30      29                Points:          60
 RS_GRID|   Bounds   3            -90      89                Points:         180
 RS_GRID| Real space fully replicated
 RS_GRID| Group size                                                           1

 RS_GRID| Information for grid number                                          3
 RS_GRID|   Bounds   1            -18      17                Points:          36
 RS_GRID|   Bounds   2            -18      17                Points:          36
 RS_GRID|   Bounds   3            -50      49                Points:         100
 RS_GRID| Real space fully replicated
 RS_GRID| Group size                                                           1

 RS_GRID| Information for grid number                                          4
 RS_GRID|   Bounds   1            -10       9                Points:          20
 RS_GRID|   Bounds   2            -10       9                Points:          20
 RS_GRID|   Bounds   3            -30      29                Points:          60
 RS_GRID| Real space fully replicated
 RS_GRID| Group size                                                           1

 RS_GRID| Information for grid number                                          5
 RS_GRID|   Bounds   1             -6       5                Points:          12
 RS_GRID|   Bounds   2             -6       5                Points:          12
 RS_GRID|   Bounds   3            -18      17                Points:          36
 RS_GRID| Real space fully replicated
 RS_GRID| Group size                                                           1

 Spin 1

 Number of electrons:                                                        296.880
 Number of occupied orbitals:                                                297
 Number of molecular orbitals:                                               832

 Spin 2

 Number of electrons:                                                        279.120
 Number of occupied orbitals:                                                280
 Number of molecular orbitals:                                               832

 Number of orbital functions:                                                832
 Number of independent orbital functions:                                    832

 Extrapolation method: initial_guess

 Atomic guess: The first density matrix is obtained in terms of atomic orbitals
               and electronic configurations assigned to each atomic kind

 Guess for atomic kind: Ni_i

 Electronic structure
    Total number of core electrons                                         10.00
    Total number of valence electrons                                      18.00
    Total number of electrons                                              28.00
    Multiplicity                                                         doublet
    Alpha Electrons
    S   [  1.00  1.00] 1.00  1.00
    P   [  3.00] 3.00
    D      4.40
    Beta Electrons
    S   [  1.00  1.00] 1.00  1.00
    P   [  3.00] 3.00
    D      3.60


 *******************************************************************************
                  Iteration          Convergence                     Energy [au]
 *******************************************************************************
                          1         1.51750                    -167.068932204718
                          2         15.5935                    -156.656530566819
                          3         2.37322                    -168.320625176021
                          4        0.215236                    -168.611142488999
                          5        0.864690E-01                -168.614185977773
                          6        0.204270E-01                -168.614864366588
                          7        0.117629E-02                -168.614962284536
                          8        0.143499E-02                -168.614962241165
                          9        0.165550E-03                -168.614962454733
                         10        0.801651E-03                -168.614962414936
                         11        0.526340E-03                -168.614962440154
                         12        0.114214E-03                -168.614962458210
                         13        0.974554E-04                -168.614962459061
                         14        0.103837E-03                -168.614962459937
                         15        0.922182E-04                -168.614962460311
                         16        0.489415E-04                -168.614962460739
                         17        0.376531E-04                -168.614962461148
                         18        0.319337E-04                -168.614962461185
                         19        0.537275E-04                -168.614962461068
                         20        0.409549E-04                -168.614962461145
                         21        0.226152E-04                -168.614962461237
                         22        0.174462E-04                -168.614962461257
                         23        0.165586E-04                -168.614962461260
                         24        0.160650E-04                -168.614962461262
                         25        0.113583E-04                -168.614962461280
                         26        0.503754E-05                -168.614962461287
                         27        0.239088E-05                -168.614962461289
                         28        0.206656E-05                -168.614962461289
                         29        0.678810E-06                -168.614962461289

 Energy components [Hartree]           Total Energy ::         -168.614962461289
                                        Band Energy ::          -26.570438398031
                                     Kinetic Energy ::           97.308645535822
                                   Potential Energy ::         -265.923607997111
                                      Virial (-V/T) ::            2.732785011371
                                        Core Energy ::         -299.569105195415
                                          XC Energy ::          -16.228812263913
                                     Coulomb Energy ::          147.182954998038
                       Total Pseudopotential Energy ::         -396.964091881334
                       Local Pseudopotential Energy ::         -362.650332264705
                    Nonlocal Pseudopotential Energy ::          -34.313759616629
                                        Confinement ::            0.863411500974

 Orbital energies  State     Spin  L     Occupation   Energy[a.u.]    Energy[eV]

                       1    alpha  0          1.000      -4.174802   -113.602130
                       2    alpha  0          1.000      -0.181779     -4.946449
                       1     beta  0          1.000      -4.138200   -112.606137
                       2     beta  0          1.000      -0.175997     -4.789129

                       1    alpha  1          3.000      -2.580817    -70.227599
                       1     beta  1          3.000      -2.545205    -69.258560

                       1    alpha  2          4.400      -0.328813     -8.947444
                       1     beta  2          3.600      -0.298561     -8.124256


 Total Electron Density at R=0:                                         0.030417

 Guess for atomic kind: Ni_b

 Electronic structure
    Total number of core electrons                                         10.00
    Total number of valence electrons                                      18.00
    Total number of electrons                                              28.00
    Multiplicity                                                         singlet
    Alpha Electrons
    S   [  1.00  1.00] 1.00  1.00
    P   [  3.00] 3.00
    D      4.16
    Beta Electrons
    S   [  1.00  1.00] 1.00  1.00
    P   [  3.00] 3.00
    D      3.85


 *******************************************************************************
                  Iteration          Convergence                     Energy [au]
 *******************************************************************************
                          1         1.51646                    -167.063466308816
                          2         14.5914                    -156.606167162897
                          3         2.18015                    -168.315992868517
                          4        0.172003                    -168.606657764742
                          5        0.603314E-01                -168.609427398029
                          6        0.850717E-02                -168.609806125431
                          7        0.849865E-02                -168.609814297649
                          8        0.500163E-02                -168.609817832394
                          9        0.113433E-02                -168.609820277160
                         10        0.224829E-02                -168.609820014536
                         11        0.876087E-03                -168.609820357166
                         12        0.123171E-03                -168.609820436311
                         13        0.586743E-04                -168.609820436989
                         14        0.676036E-04                -168.609820437199
                         15        0.108661E-03                -168.609820435507
                         16        0.104340E-03                -168.609820436769
                         17        0.195266E-04                -168.609820437521
                         18        0.168704E-04                -168.609820437548
                         19        0.128246E-04                -168.609820437566
                         20        0.151880E-04                -168.609820437568
                         21        0.175215E-04                -168.609820437569
                         22        0.425448E-05                -168.609820437599
                         23        0.242863E-05                -168.609820437600
                         24        0.248663E-05                -168.609820437599
                         25        0.122050E-05                -168.609820437600
                         26        0.644445E-06                -168.609820437600

 Energy components [Hartree]           Total Energy ::         -168.609820437600
                                        Band Energy ::          -26.567982948350
                                     Kinetic Energy ::           97.301697370219
                                   Potential Energy ::         -265.911517807819
                                      Virial (-V/T) ::            2.732855900715
                                        Core Energy ::         -299.565044661112
                                          XC Energy ::          -16.222928265301
                                     Coulomb Energy ::          147.178152488813
                       Total Pseudopotential Energy ::         -396.953082419795
                       Local Pseudopotential Energy ::         -362.642965158536
                    Nonlocal Pseudopotential Energy ::          -34.310117261258
                                        Confinement ::            0.863403884639

 Orbital energies  State     Spin  L     Occupation   Energy[a.u.]    Energy[eV]

                       1    alpha  0          1.000      -4.164145   -113.312158
                       2    alpha  0          1.000      -0.180057     -4.899606
                       1     beta  0          1.000      -4.149962   -112.926211
                       2     beta  0          1.000      -0.177818     -4.838666

                       1    alpha  1          3.000      -2.570448    -69.945450
                       1     beta  1          3.000      -2.556649    -69.569952

                       1    alpha  2          4.155      -0.319973     -8.706918
                       1     beta  2          3.845      -0.308250     -8.387904


 Total Electron Density at R=0:                                         0.030434

 Spin 1
 Re-scaling the density matrix to get the right number of electrons for spin 1
                  # Electrons              Trace(P)               Scaling factor
                        296.880             296.880                        1.000

 Spin 2
 Re-scaling the density matrix to get the right number of electrons for spin 2
                  # Electrons              Trace(P)               Scaling factor
                        279.120             279.120                        1.000


 SCF WAVEFUNCTION OPTIMIZATION

  Step     Update method      Time    Convergence         Total energy    Change
  ------------------------------------------------------------------------------
     1 NoMix/Diag. 0.80E-01    1.6     0.87259914     -5426.4435933116 -5.43E+03
     2 Broy./Diag. 0.80E-01    1.5     0.02041617     -5316.0153534184  1.10E+02
     3 Broy./Diag. 0.80E-01    1.6     0.04235612     -5349.5392167522 -3.35E+01
     4 Broy./Diag. 0.80E-01    1.5     0.01234317     -5405.0004150415 -5.55E+01
     5 Broy./Diag. 0.80E-01    1.5     0.00921796     -5416.4965411259 -1.15E+01
     6 Broy./Diag. 0.80E-01    1.5     0.01565207     -5415.1868966155  1.31E+00
     7 Broy./Diag. 0.80E-01    1.5     0.00255175     -5416.9849657016 -1.80E+00
     8 Broy./Diag. 0.80E-01    1.5     0.00974134     -5417.0535828911 -6.86E-02
     9 Broy./Diag. 0.80E-01    1.5     0.00301228     -5416.8437989708  2.10E-01
    10 Broy./Diag. 0.80E-01    1.5     0.00182243     -5417.4544067190 -6.11E-01
    11 Broy./Diag. 0.80E-01    1.5     0.00226387     -5417.1132298741  3.41E-01
    12 Broy./Diag. 0.80E-01    1.5     0.00084603     -5417.5911183076 -4.78E-01
[...]
   133 Broy./Diag. 0.80E-01    1.5     0.06140468     -5417.1558200653  2.55E+00
   134 Broy./Diag. 0.80E-01    1.5     0.07527235     -5418.0540454355 -8.98E-01
   135 Broy./Diag. 0.80E-01    1.5     0.08207356     -5414.9706516282  3.08E+00
   136 Broy./Diag. 0.80E-01    1.5     0.07510930     -5419.5411060250 -4.57E+00
   137 Broy./Diag. 0.80E-01    1.5     0.05582274     -5419.8110594989 -2.70E-01
   138 Broy./Diag. 0.80E-01    1.5     0.04313589     -5418.5530740454  1.26E+00
   139 Broy./Diag. 0.80E-01    1.5     0.09253181     -5420.1181789461 -1.57E+00
   140 Broy./Diag. 0.80E-01    1.5     0.09481804     -5419.8515202225  2.67E-01
   141 Broy./Diag. 0.80E-01    1.5     0.03191399     -5419.9623442041 -1.11E-01
   142 Broy./Diag. 0.80E-01    1.5     0.25623412     -5419.2475680925  7.15E-01
   143 Broy./Diag. 0.80E-01    1.5     0.04152348     -5419.7844587525 -5.37E-01
   144 Broy./Diag. 0.80E-01    1.5     0.04126452     -5419.7499922351  3.45E-02
   145 Broy./Diag. 0.80E-01    1.5     0.03652240     -5419.9443445299 -1.94E-01
   146 Broy./Diag. 0.80E-01    1.5     0.04038081     -5419.9525823058 -8.24E-03
   147 Broy./Diag. 0.80E-01    1.5     0.04423171     -5420.0280104517 -7.54E-02
   148 Broy./Diag. 0.80E-01    1.5     0.01649641     -5419.9483465973  7.97E-02
   149 Broy./Diag. 0.80E-01    1.5     0.07255912     -5419.8961795875  5.22E-02
   150 Broy./Diag. 0.80E-01    1.5     0.18453182     -5419.8250352406  7.11E-02
   151 Broy./Diag. 0.80E-01    1.5     0.19981493     -5414.3591481395  5.47E+00
   152 Broy./Diag. 0.80E-01    1.5     0.19126184     -5416.0202551653 -1.66E+00
   153 Broy./Diag. 0.80E-01    1.5     0.05151406     -5416.4172619982 -3.97E-01
   154 Broy./Diag. 0.80E-01    1.5     0.09187188     -5413.8931337292  2.52E+00
   155 Broy./Diag. 0.80E-01    1.5     0.08881814     -5409.6684238859  4.22E+00
   156 Broy./Diag. 0.80E-01    1.5     0.22053672     -5414.6637219499 -5.00E+00
   157 Broy./Diag. 0.80E-01    1.5     0.21355381     -5416.1077751526 -1.44E+00
   158 Broy./Diag. 0.80E-01    1.5     0.02956970     -5415.1308488668  9.77E-01
   159 Broy./Diag. 0.80E-01    1.5     0.04294069     -5415.5587208817 -4.28E-01
   160 Broy./Diag. 0.80E-01    1.5     0.09395047     -5413.5875591743  1.97E+00
   161 Broy./Diag. 0.80E-01    1.5     0.05372859     -5413.9516422060 -3.64E-01
   162 Broy./Diag. 0.80E-01    1.5     0.08089283     -5414.0502202853 -9.86E-02
   163 Broy./Diag. 0.80E-01    1.5     0.05031864     -5415.1711091741 -1.12E+00
   164 Broy./Diag. 0.80E-01    1.5     0.16908805     -5415.4922247781 -3.21E-01
   165 Broy./Diag. 0.80E-01    1.5     0.25098786     -5411.9799824016  3.51E+00
   166 Broy./Diag. 0.80E-01    1.5     0.10680824     -5417.6095788331 -5.63E+00
   167 Broy./Diag. 0.80E-01    1.5     0.12878443     -5419.3395221869 -1.73E+00
   168 Broy./Diag. 0.80E-01    1.5     0.10390321     -5415.9539946081  3.39E+00
   169 Broy./Diag. 0.80E-01    1.5     0.31466636     -5414.2677891733  1.69E+00
   170 Broy./Diag. 0.80E-01    1.5     0.05310161     -5413.6565985723  6.11E-01
   171 Broy./Diag. 0.80E-01    1.5     0.04730833     -5413.1222797716  5.34E-01
   172 Broy./Diag. 0.80E-01    1.5     0.35352726     -5414.9261690913 -1.80E+00
   173 Broy./Diag. 0.80E-01    1.5     0.07880460     -5413.3993871149  1.53E+00
   174 Broy./Diag. 0.80E-01    1.5     0.08089025     -5417.5671475408 -4.17E+00
   175 Broy./Diag. 0.80E-01    1.5     0.04339847     -5416.3692416938  1.20E+00
   176 Broy./Diag. 0.80E-01    1.5     0.10130280     -5419.2449189953 -2.88E+00
   177 Broy./Diag. 0.80E-01    1.5     0.04996095     -5415.9734796071  3.27E+00
   178 Broy./Diag. 0.80E-01    1.5     0.01764224     -5417.0984823931 -1.13E+00
   179 Broy./Diag. 0.80E-01    1.5     0.00748558     -5417.4323461208 -3.34E-01
   180 Broy./Diag. 0.80E-01    1.5     0.06824277     -5418.7600781133 -1.33E+00
   181 Broy./Diag. 0.80E-01    1.5     0.05012492     -5420.9084748054 -2.15E+00
   182 Broy./Diag. 0.80E-01    1.5     0.03023592     -5418.9802494486  1.93E+00
   183 Broy./Diag. 0.80E-01    1.5     0.01696040     -5416.8565325842  2.12E+00
   184 Broy./Diag. 0.80E-01    1.5     0.03281736     -5417.6023899207 -7.46E-01
   185 Broy./Diag. 0.80E-01    1.5     0.02333341     -5418.2596729790 -6.57E-01
   186 Broy./Diag. 0.80E-01    1.5     0.08628012     -5420.1314132453 -1.87E+00
   187 Broy./Diag. 0.80E-01    1.5     0.01358808     -5421.0344515752 -9.03E-01
   188 Broy./Diag. 0.80E-01    1.5     0.01530074     -5421.2166954843 -1.82E-01
   189 Broy./Diag. 0.80E-01    1.5     0.03947336     -5419.2996754854  1.92E+00
   190 Broy./Diag. 0.80E-01    1.5     0.02527378     -5415.7094274817  3.59E+00
   191 Broy./Diag. 0.80E-01    1.5     0.08021763     -5416.2534460372 -5.44E-01
   192 Broy./Diag. 0.80E-01    1.5     0.03219261     -5419.4777246511 -3.22E+00
   193 Broy./Diag. 0.80E-01    1.5     0.02282372     -5417.9807284177  1.50E+00
   194 Broy./Diag. 0.80E-01    1.5     0.01247235     -5419.0076926025 -1.03E+00
   195 Broy./Diag. 0.80E-01    1.5     0.03202515     -5418.3564431579  6.51E-01
   196 Broy./Diag. 0.80E-01    1.5     0.01052916     -5417.7233165514  6.33E-01
   197 Broy./Diag. 0.80E-01    1.5     0.00690998     -5418.7919156595 -1.07E+00
   198 Broy./Diag. 0.80E-01    1.5     0.01463625     -5417.3632525091  1.43E+00
   199 Broy./Diag. 0.80E-01    1.5     0.02421196     -5417.6378110940 -2.75E-01
   200 Broy./Diag. 0.80E-01    1.5     0.03068617     -5418.6741552446 -1.04E+00
   201 Broy./Diag. 0.80E-01    1.5     0.22455198     -5416.0819643715  2.59E+00
   202 Broy./Diag. 0.80E-01    1.5     0.06875075     -5420.1032326276 -4.02E+00
   203 Broy./Diag. 0.80E-01    1.5     0.00473850     -5420.0005256548  1.03E-01
   204 Broy./Diag. 0.80E-01    1.5     0.02444590     -5420.2055725406 -2.05E-01
   205 Broy./Diag. 0.80E-01    1.5     0.00582174     -5419.8042946884  4.01E-01
   206 Broy./Diag. 0.80E-01    1.5     0.05374427     -5419.7823881721  2.19E-02
   207 Broy./Diag. 0.80E-01    1.5     0.01068190     -5419.2263127715  5.56E-01
   208 Broy./Diag. 0.80E-01    1.5     0.00470870     -5419.0046075420  2.22E-01
   209 Broy./Diag. 0.80E-01    1.5     0.00752379     -5419.0713133681 -6.67E-02
   210 Broy./Diag. 0.80E-01    1.5     0.12804406     -5418.5225515587  5.49E-01
   211 Broy./Diag. 0.80E-01    1.5     0.05552836     -5416.4854484323  2.04E+00
   212 Broy./Diag. 0.80E-01    1.5     0.02783175     -5418.2531721381 -1.77E+00
   213 Broy./Diag. 0.80E-01    1.5     0.00705904     -5418.2018707496  5.13E-02
   214 Broy./Diag. 0.80E-01    1.5     0.00922561     -5418.0938429197  1.08E-01
   215 Broy./Diag. 0.80E-01    1.5     0.00673875     -5417.9553313443  1.39E-01
   216 Broy./Diag. 0.80E-01    1.5     0.02453075     -5417.9280587331  2.73E-02
   217 Broy./Diag. 0.80E-01    1.5     0.00889178     -5417.4745184955  4.54E-01
   218 Broy./Diag. 0.80E-01    1.5     0.02290429     -5417.2206726336  2.54E-01
   219 Broy./Diag. 0.80E-01    1.5     0.03213370     -5417.6838572919 -4.63E-01
   220 Broy./Diag. 0.80E-01    1.5     0.02944011     -5417.6653723346  1.85E-02
   221 Broy./Diag. 0.80E-01    1.5     0.01443242     -5416.8855157379  7.80E-01
   222 Broy./Diag. 0.80E-01    1.5     0.05573535     -5417.5034683447 -6.18E-01
   223 Broy./Diag. 0.80E-01    1.5     0.06860335     -5416.2407169493  1.26E+00
   224 Broy./Diag. 0.80E-01    1.5     0.02758428     -5417.2241013229 -9.83E-01
   225 Broy./Diag. 0.80E-01    1.5     0.04225993     -5417.2013389225  2.28E-02
   226 Broy./Diag. 0.80E-01    1.5     0.02740240     -5418.9977736417 -1.80E+00
   227 Broy./Diag. 0.80E-01    1.5     0.03898039     -5418.9834588568  1.43E-02
   228 Broy./Diag. 0.80E-01    1.5     0.01850057     -5419.2185412374 -2.35E-01
   229 Broy./Diag. 0.80E-01    1.5     0.03172377     -5419.0298302348  1.89E-01
   230 Broy./Diag. 0.80E-01    1.5     0.01689814     -5418.7811672417  2.49E-01
   231 Broy./Diag. 0.80E-01    1.5     0.00374276     -5418.7653078716  1.59E-02
   232 Broy./Diag. 0.80E-01    1.5     0.02332270     -5418.5899281799  1.75E-01
   233 Broy./Diag. 0.80E-01    1.5     0.02798543     -5417.4966577335  1.09E+00
   234 Broy./Diag. 0.80E-01    1.5     0.02236250     -5418.0643912725 -5.68E-01
   235 Broy./Diag. 0.80E-01    1.5     0.01960616     -5417.7601747802  3.04E-01
   236 Broy./Diag. 0.80E-01    1.5     0.00956908     -5417.7977213178 -3.75E-02
   237 Broy./Diag. 0.80E-01    1.5     0.02083852     -5418.3644744246 -5.67E-01
   238 Broy./Diag. 0.80E-01    1.5     0.00380115     -5418.7846710979 -4.20E-01
   239 Broy./Diag. 0.80E-01    1.5     0.02720022     -5418.8094534965 -2.48E-02
   240 Broy./Diag. 0.80E-01    1.5     0.01571429     -5418.9211768844 -1.12E-01
   241 Broy./Diag. 0.80E-01    1.5     0.00685257     -5418.8091876326  1.12E-01
   242 Broy./Diag. 0.80E-01    1.5     0.01872330     -5418.8658676594 -5.67E-02
   243 Broy./Diag. 0.80E-01    1.5     0.00433157     -5418.3548668439  5.11E-01
   244 Broy./Diag. 0.80E-01    1.5     0.01485769     -5418.4574312893 -1.03E-01
   245 Broy./Diag. 0.80E-01    1.5     0.03357232     -5418.2041448056  2.53E-01
   246 Broy./Diag. 0.80E-01    1.5     0.03758563     -5418.4897977737 -2.86E-01
   247 Broy./Diag. 0.80E-01    1.5     0.01727816     -5418.6048407986 -1.15E-01
   248 Broy./Diag. 0.80E-01    1.5     0.00227791     -5418.6244678116 -1.96E-02
   249 Broy./Diag. 0.80E-01    1.5     0.04648954     -5418.6639705254 -3.95E-02
   250 Broy./Diag. 0.80E-01    1.5     0.02387251     -5418.4323648772  2.32E-01
   251 Broy./Diag. 0.80E-01    1.5     0.05036849     -5417.8754766955  5.57E-01
   252 Broy./Diag. 0.80E-01    1.5     0.00872804     -5416.3685495393  1.51E+00
   253 Broy./Diag. 0.80E-01    1.5     0.04433883     -5417.9496535710 -1.58E+00
   254 Broy./Diag. 0.80E-01    1.5     0.04960141     -5418.6336829398 -6.84E-01
   255 Broy./Diag. 0.80E-01    1.5     0.02520022     -5418.7365706658 -1.03E-01
   256 Broy./Diag. 0.80E-01    1.5     0.07697519     -5418.9584735586 -2.22E-01
   257 Broy./Diag. 0.80E-01    1.5     0.09629062     -5418.8991515876  5.93E-02
   258 Broy./Diag. 0.80E-01    1.5     0.03825902     -5418.8793495727  1.98E-02
   259 Broy./Diag. 0.80E-01    1.5     0.02616952     -5418.4610969309  4.18E-01
   260 Broy./Diag. 0.80E-01    1.5     0.02296278     -5418.1415855131  3.20E-01
   261 Broy./Diag. 0.80E-01    1.5     0.01816880     -5416.4214855656  1.72E+00
   262 Broy./Diag. 0.80E-01    1.5     0.08467062     -5418.3609292975 -1.94E+00
   263 Broy./Diag. 0.80E-01    1.5     0.04676700     -5418.6522182785 -2.91E-01
   264 Broy./Diag. 0.80E-01    1.5     0.11242225     -5418.8762863066 -2.24E-01
   265 Broy./Diag. 0.80E-01    1.5     0.04827132     -5418.4472563356  4.29E-01
   266 Broy./Diag. 0.80E-01    1.5     0.01550406     -5418.2023366806  2.45E-01
   267 Broy./Diag. 0.80E-01    1.5     0.05113917     -5418.2693468056 -6.70E-02
   268 Broy./Diag. 0.80E-01    1.5     0.02260406     -5418.1450105792  1.24E-01
   269 Broy./Diag. 0.80E-01    1.5     0.05319503     -5418.1524228420 -7.41E-03
   270 Broy./Diag. 0.80E-01    1.5     0.02101555     -5417.8275778557  3.25E-01
   271 Broy./Diag. 0.80E-01    1.5     0.02104812     -5418.1796909394 -3.52E-01
   272 Broy./Diag. 0.80E-01    1.5     0.06857099     -5418.1925903386 -1.29E-02
   273 Broy./Diag. 0.80E-01    1.5     0.20963837     -5414.4209562563  3.77E+00
   274 Broy./Diag. 0.80E-01    1.5     0.24782541     -5414.6111776474 -1.90E-01
   275 Broy./Diag. 0.80E-01    1.5     0.06569429     -5417.8731198139 -3.26E+00
   276 Broy./Diag. 0.80E-01    1.5     0.09581760     -5418.8746570217 -1.00E+00
   277 Broy./Diag. 0.80E-01    1.5     0.06610750     -5415.8202202116  3.05E+00
   278 Broy./Diag. 0.80E-01    1.5     0.07256450     -5413.3648549256  2.46E+00
   279 Broy./Diag. 0.80E-01    1.5     0.10463119     -5416.4430367794 -3.08E+00
   280 Broy./Diag. 0.80E-01    1.5     0.08653890     -5417.7888181992 -1.35E+00
   281 Broy./Diag. 0.80E-01    1.5     0.15213802     -5417.8237712482 -3.50E-02
   282 Broy./Diag. 0.80E-01    1.5     0.20380190     -5418.5903494470 -7.67E-01
   283 Broy./Diag. 0.80E-01    1.5     0.09906218     -5417.5189331909  1.07E+00
   284 Broy./Diag. 0.80E-01    1.5     0.05320392     -5418.9574516983 -1.44E+00
   285 Broy./Diag. 0.80E-01    1.5     0.09684865     -5419.7293347223 -7.72E-01
   286 Broy./Diag. 0.80E-01    1.5     0.13828059     -5418.5098713486  1.22E+00
   287 Broy./Diag. 0.80E-01    1.5     0.06305198     -5414.9773331921  3.53E+00
   288 Broy./Diag. 0.80E-01    1.5     0.03689924     -5413.6518015853  1.33E+00
   289 Broy./Diag. 0.80E-01    1.5     0.02651203     -5415.3951087012 -1.74E+00
   290 Broy./Diag. 0.80E-01    1.5     0.11310531     -5412.7046723916  2.69E+00
   291 Broy./Diag. 0.80E-01    1.5     0.16860844     -5412.0632797844  6.41E-01
   292 Broy./Diag. 0.80E-01    1.5     0.13376046     -5408.4066999963  3.66E+00
   293 Broy./Diag. 0.80E-01    1.5     0.08815164     -5420.0836676364 -1.17E+01
   294 Broy./Diag. 0.80E-01    1.5     0.20681012     -5420.0494499044  3.42E-02
   295 Broy./Diag. 0.80E-01    1.5     0.11252290     -5418.5571982272  1.49E+00
   296 Broy./Diag. 0.80E-01    1.5     0.10798181     -5418.2012486339  3.56E-01
   297 Broy./Diag. 0.80E-01    1.5     0.02566265     -5416.7185180848  1.48E+00
   298 Broy./Diag. 0.80E-01    1.5     0.05742961     -5417.3349914282 -6.16E-01
   299 Broy./Diag. 0.80E-01    1.5     0.35821039     -5415.2593628349  2.08E+00
   300 Broy./Diag. 0.80E-01    1.5     0.03591228     -5421.8001365605 -6.54E+00
   301 Broy./Diag. 0.80E-01    1.5     0.20797642     -5421.8507697402 -5.06E-02
   302 Broy./Diag. 0.80E-01    1.5     0.12527586     -5418.7172655196  3.13E+00
   303 Broy./Diag. 0.80E-01    1.5     0.06226097     -5419.0499364219 -3.33E-01
   304 Broy./Diag. 0.80E-01    1.5     0.14790314     -5418.4288775680  6.21E-01
   305 Broy./Diag. 0.80E-01    1.5     0.03983780     -5418.0219031124  4.07E-01
   306 Broy./Diag. 0.80E-01    1.5     0.18464950     -5418.5191353716 -4.97E-01
   307 Broy./Diag. 0.80E-01    1.5     0.12265451     -5418.3286898053  1.90E-01
   308 Broy./Diag. 0.80E-01    1.5     0.06673429     -5418.5954250292 -2.67E-01
   309 Broy./Diag. 0.80E-01    1.5     0.22958632     -5415.8017400740  2.79E+00
   310 Broy./Diag. 0.80E-01    1.5     0.09637635     -5419.9779360359 -4.18E+00
   311 Broy./Diag. 0.80E-01    1.5     0.03474887     -5416.2809271139  3.70E+00
   312 Broy./Diag. 0.80E-01    1.5     0.06897827     -5418.3654893697 -2.08E+00
   313 Broy./Diag. 0.80E-01    1.5     0.14547756     -5417.1460174583  1.22E+00
   314 Broy./Diag. 0.80E-01    1.5     0.09778544     -5418.2798983139 -1.13E+00
   315 Broy./Diag. 0.80E-01    1.5     0.07326743     -5419.0997643810 -8.20E-01
   316 Broy./Diag. 0.80E-01    1.5     0.05201218     -5419.5895188491 -4.90E-01
   317 Broy./Diag. 0.80E-01    1.5     0.09106873     -5419.8167493767 -2.27E-01
   318 Broy./Diag. 0.80E-01    1.5     0.08875861     -5419.7595267168  5.72E-02
   319 Broy./Diag. 0.80E-01    1.5     0.04232394     -5420.9215895687 -1.16E+00
   320 Broy./Diag. 0.80E-01    1.5     0.01070270     -5421.3062083704 -3.85E-01
   321 Broy./Diag. 0.80E-01    1.5     0.11119805     -5421.1207273938  1.85E-01
   322 Broy./Diag. 0.80E-01    1.5     0.10373602     -5415.2405855164  5.88E+00
   323 Broy./Diag. 0.80E-01    1.5     0.06617253     -5422.1713183909 -6.93E+00
   324 Broy./Diag. 0.80E-01    1.5     0.21022419     -5422.8198296882 -6.49E-01
   325 Broy./Diag. 0.80E-01    1.5     0.34095471     -5419.9613429862  2.86E+00
   326 Broy./Diag. 0.80E-01    1.5     0.46435302     -5418.5679183356  1.39E+00
   327 Broy./Diag. 0.80E-01    1.5     0.20078477     -5420.3553055761 -1.79E+00
   328 Broy./Diag. 0.80E-01    1.5     0.20828942     -5419.4761550853  8.79E-01
   329 Broy./Diag. 0.80E-01    1.5     0.26273697     -5420.9379243305 -1.46E+00
   330 Broy./Diag. 0.80E-01    1.5     0.16314511     -5421.7552079832 -8.17E-01
   331 Broy./Diag. 0.80E-01    1.5     0.28434957     -5424.8395126497 -3.08E+00
   332 Broy./Diag. 0.80E-01    1.5     0.39648164     -5420.0835192040  4.76E+00
   333 Broy./Diag. 0.80E-01    1.5     0.16195151     -5429.1895881250 -9.11E+00
   334 Broy./Diag. 0.80E-01    1.5     0.07380418     -5424.2078263522  4.98E+00
   335 Broy./Diag. 0.80E-01    1.5     0.41410806     -5424.2657088629 -5.79E-02
   336 Broy./Diag. 0.80E-01    1.5     0.58728624     -5422.1102236105  2.16E+00
   337 Broy./Diag. 0.80E-01    1.5     0.12656157     -5425.8425141638 -3.73E+00
   338 Broy./Diag. 0.80E-01    1.5     0.04742716     -5423.1671408087  2.68E+00
   339 Broy./Diag. 0.80E-01    1.5     0.38158860     -5422.8651336832  3.02E-01
   340 Broy./Diag. 0.80E-01    1.5     0.09416792     -5418.1829086747  4.68E+00
   341 Broy./Diag. 0.80E-01    1.5     0.07056582     -5417.3007542141  8.82E-01
   342 Broy./Diag. 0.80E-01    1.5     0.10137243     -5418.0504943512 -7.50E-01
   343 Broy./Diag. 0.80E-01    1.5     0.01496795     -5418.8957913691 -8.45E-01
   344 Broy./Diag. 0.80E-01    1.5     0.00684900     -5419.2877458423 -3.92E-01
   345 Broy./Diag. 0.80E-01    1.5     0.03702540     -5419.5344212424 -2.47E-01
   346 Broy./Diag. 0.80E-01    1.5     0.52056779     -5421.7310399411 -2.20E+00
   347 Broy./Diag. 0.80E-01    1.5     0.29472508     -5419.4624313759  2.27E+00
   348 Broy./Diag. 0.80E-01    1.5     0.11958751     -5418.9399006409  5.23E-01
   349 Broy./Diag. 0.80E-01    1.5     0.19070183     -5418.0376550801  9.02E-01
   350 Broy./Diag. 0.80E-01    1.5     0.12068385     -5418.9664193123 -9.29E-01
   351 Broy./Diag. 0.80E-01    1.5     0.09097215     -5416.2343599563  2.73E+00
   352 Broy./Diag. 0.80E-01    1.5     0.05470974     -5419.6970576116 -3.46E+00
   353 Broy./Diag. 0.80E-01    1.5     0.07180950     -5416.4961278353  3.20E+00
   354 Broy./Diag. 0.80E-01    1.5     0.00805469     -5419.5340672450 -3.04E+00
   355 Broy./Diag. 0.80E-01    1.5     0.02692331     -5419.6539963936 -1.20E-01
   356 Broy./Diag. 0.80E-01    1.5     0.12212924     -5418.6015410571  1.05E+00
   357 Broy./Diag. 0.80E-01    1.5     0.05768161     -5421.1070037847 -2.51E+00
   358 Broy./Diag. 0.80E-01    1.5     0.05140005     -5420.4869061733  6.20E-01
   359 Broy./Diag. 0.80E-01    1.5     0.06995220     -5421.0534219589 -5.67E-01
   360 Broy./Diag. 0.80E-01    1.5     0.06910315     -5419.7349153626  1.32E+00
   361 Broy./Diag. 0.80E-01    1.5     0.18369230     -5416.9443431332  2.79E+00
   362 Broy./Diag. 0.80E-01    1.5     0.42190461     -5416.2560225244  6.88E-01
   363 Broy./Diag. 0.80E-01    1.5     0.11160191     -5418.7184091638 -2.46E+00
   364 Broy./Diag. 0.80E-01    1.5     0.14432878     -5418.7472325404 -2.88E-02
   365 Broy./Diag. 0.80E-01    1.5     0.04790362     -5418.7492589480 -2.03E-03
   366 Broy./Diag. 0.80E-01    1.5     0.04507682     -5418.6054602307  1.44E-01
   367 Broy./Diag. 0.80E-01    1.5     0.20963509     -5418.5804733994  2.50E-02
   368 Broy./Diag. 0.80E-01    1.5     0.44920087     -5417.0921548767  1.49E+00
   369 Broy./Diag. 0.80E-01    1.5     0.11732899     -5410.0371739876  7.05E+00
   370 Broy./Diag. 0.80E-01    1.5     0.35308117     -5417.4929606790 -7.46E+00
   371 Broy./Diag. 0.80E-01    1.5     0.15422576     -5423.4692487594 -5.98E+00
   372 Broy./Diag. 0.80E-01    1.5     0.27761919     -5423.3241353679  1.45E-01
   373 Broy./Diag. 0.80E-01    1.5     0.09171381     -5418.9295924106  4.39E+00
   374 Broy./Diag. 0.80E-01    1.5     0.23498865     -5417.8879049852  1.04E+00
   375 Broy./Diag. 0.80E-01    1.5     0.08137243     -5419.8670997574 -1.98E+00
   376 Broy./Diag. 0.80E-01    1.5     0.06633199     -5419.5103570861  3.57E-01
   377 Broy./Diag. 0.80E-01    1.5     0.18872499     -5416.8932614435  2.62E+00
   378 Broy./Diag. 0.80E-01    1.5     0.12086740     -5419.2300986686 -2.34E+00
