 DBCSR| CPU Multiplication driver                                           XSMM (U)
 DBCSR| Multrec recursion limit                                              512 (U)
 DBCSR| Multiplication stack size                                           1000 (D)
 DBCSR| Maximum elements for images                                    UNLIMITED (U)
 DBCSR| Multiplicative factor virtual images                                   1 (U)
 DBCSR| Use multiplication densification                                       T (D)
 DBCSR| Multiplication size stacks                                             3 (U)
 DBCSR| Use memory pool for CPU allocation                                     F (U)
 DBCSR| Number of 3D layers                                               SINGLE (U)
 DBCSR| Use MPI memory allocation                                              F (U)
 DBCSR| Use RMA algorithm                                                      F (U)
 DBCSR| Use Communication thread                                               T (U)
 DBCSR| Communication thread load                                             87 (D)
 DBCSR| MPI: My process id                                                     0
 DBCSR| MPI: Number of processes                                             128
 DBCSR| OMP: Current number of threads                                         1
 DBCSR| OMP: Max number of threads                                             1
 DBCSR| Split modifier for TAS multiplication algorithm                  1.0E+00 (U)


  **** **** ******  **  PROGRAM STARTED AT               2023-02-14 19:06:29.941
 ***** ** ***  *** **   PROGRAM STARTED ON                             nid001846
 **    ****   ******    PROGRAM STARTED BY                                cahart
 ***** **    ** ** **   PROGRAM PROCESS ID                                196365
  **** **  *******  **  PROGRAM STARTED IN /mnt/lustre/a2fs-work2/work/e05/e05/c
                                           ahart/postdoc/masters/ni/archer2/slab
                                           /optimise/alpha-beta/scf_1e-3_mos-100
                                           0_temp-2000_spin-0.7-0.5_periodic-xyz
                                           /search/4.0E-01_4.0E-02

 CP2K| version string:                 CP2K version 2023.1 (Development Version)
 CP2K| source code revision number:                                  git:964cd58
 CP2K| cp2kflags: omp libint fftw3 libxc elpa parallel scalapack xsmm plumed2 mk
 CP2K|            l
 CP2K| is freely available from                            https://www.cp2k.org/
 CP2K| Program compiled at                          Mon 13 Feb 17:05:14 GMT 2023
 CP2K| Program compiled on                                                  ln01
 CP2K| Program compiled for                                              ARCHER2
 CP2K| Data directory path    /work/e05/e05/cahart/cp2k/cp2k-2023.1/cp2k-2023.1-
 CP2K| Input file name                                                  cp2k.inp

 GLOBAL| Force Environment number                                              1
 GLOBAL| Basis set file name                                        BASIS_MOLOPT
 GLOBAL| Potential file name                                      GTH_POTENTIALS
 GLOBAL| MM Potential file name                                     MM_POTENTIAL
 GLOBAL| Coordinate file name                                      __STD_INPUT__
 GLOBAL| Method name                                                        CP2K
 GLOBAL| Project name                                                    Ni_bulk
 GLOBAL| Run type                                                         ENERGY
 GLOBAL| FFT library                                                       FFTW3
 GLOBAL| Diagonalization library                                            ELPA
 GLOBAL| DGEMM library                                                      BLAS
 GLOBAL| Minimum number of eigenvectors for ELPA usage                        16
 GLOBAL| Orthonormality check for eigenvectors                          DISABLED
 GLOBAL| Matrix multiplication library                                 ScaLAPACK
 GLOBAL| All-to-all communication in single precision                          F
 GLOBAL| FFTs using library dependent lengths                                  F
 GLOBAL| Grid backend                                                       AUTO
 GLOBAL| Global print level                                               MEDIUM
 GLOBAL| MPI I/O enabled                                                       T
 GLOBAL| Total number of message passing processes                           128
 GLOBAL| Number of threads for this process                                    1
 GLOBAL| This output is from process                                           0
 GLOBAL| Stack size for threads created by OpenMP (OMP_STACKSIZE)        default
 GLOBAL| CPU model name                          AMD EPYC 7742 64-Core Processor
 GLOBAL| CPUID                                                              1002

 MEMORY| system memory details [Kb]
 MEMORY|                        rank 0           min           max       average
 MEMORY| MemTotal            263528088     263528088     263528088     263528088
 MEMORY| MemFree             239306888     239306888     239306888     239306888
 MEMORY| Buffers                 25540         25540         25540         25540
 MEMORY| Cached                 590736        590736        590736        590736
 MEMORY| Slab                  1508520       1508520       1508520       1508520
 MEMORY| SReclaimable           107028        107028        107028        107028
 MEMORY| MemLikelyFree       240030192     240030192     240030192     240030192


 *** Fundamental physical constants (SI units) ***

 *** Literature: B. J. Mohr and B. N. Taylor,
 ***             CODATA recommended values of the fundamental physical
 ***             constants: 2006, Web Version 5.1
 ***             http://physics.nist.gov/constants

 Speed of light in vacuum [m/s]                             2.99792458000000E+08
 Magnetic constant or permeability of vacuum [N/A**2]       1.25663706143592E-06
 Electric constant or permittivity of vacuum [F/m]          8.85418781762039E-12
 Planck constant (h) [J*s]                                  6.62606896000000E-34
 Planck constant (h-bar) [J*s]                              1.05457162825177E-34
 Elementary charge [C]                                      1.60217648700000E-19
 Electron mass [kg]                                         9.10938215000000E-31
 Electron g factor [ ]                                     -2.00231930436220E+00
 Proton mass [kg]                                           1.67262163700000E-27
 Fine-structure constant                                    7.29735253760000E-03
 Rydberg constant [1/m]                                     1.09737315685270E+07
 Avogadro constant [1/mol]                                  6.02214179000000E+23
 Boltzmann constant [J/K]                                   1.38065040000000E-23
 Atomic mass unit [kg]                                      1.66053878200000E-27
 Bohr radius [m]                                            5.29177208590000E-11

 *** Conversion factors ***

 [u] -> [a.u.]                                              1.82288848426455E+03
 [Angstrom] -> [Bohr] = [a.u.]                              1.88972613288564E+00
 [a.u.] = [Bohr] -> [Angstrom]                              5.29177208590000E-01
 [a.u.] -> [s]                                              2.41888432650478E-17
 [a.u.] -> [fs]                                             2.41888432650478E-02
 [a.u.] -> [J]                                              4.35974393937059E-18
 [a.u.] -> [N]                                              8.23872205491840E-08
 [a.u.] -> [K]                                              3.15774647902944E+05
 [a.u.] -> [kJ/mol]                                         2.62549961709828E+03
 [a.u.] -> [kcal/mol]                                       6.27509468713739E+02
 [a.u.] -> [Pa]                                             2.94210107994716E+13
 [a.u.] -> [bar]                                            2.94210107994716E+08
 [a.u.] -> [atm]                                            2.90362800883016E+08
 [a.u.] -> [eV]                                             2.72113838565563E+01
 [a.u.] -> [Hz]                                             6.57968392072181E+15
 [a.u.] -> [1/cm] (wave numbers)                            2.19474631370540E+05
 [a.u./Bohr**2] -> [1/cm]                                   5.14048714338585E+03
 

 CELL_TOP| Volume [angstrom^3]:                                       983.249569
 CELL_TOP| Vector a [angstrom     7.012     0.000     0.000   |a| =     7.011596
 CELL_TOP| Vector b [angstrom     0.000     7.012     0.000   |b| =     7.011596
 CELL_TOP| Vector c [angstrom     0.000     0.000    20.000   |c| =    20.000000
 CELL_TOP| Angle (b,c), alpha [degree]:                                90.000000
 CELL_TOP| Angle (a,c), beta  [degree]:                                90.000000
 CELL_TOP| Angle (a,b), gamma [degree]:                                90.000000
 CELL_TOP| Numerically orthorhombic:                                         YES
 CELL_TOP| Periodicity                                                       XYZ

 GENERATE|  Preliminary Number of Bonds generated:                             0
 GENERATE|  Achieved consistency in connectivity generation.

 CELL| Volume [angstrom^3]:                                           983.249569
 CELL| Vector a [angstrom]:       7.012     0.000     0.000   |a| =     7.011596
 CELL| Vector b [angstrom]:       0.000     7.012     0.000   |b| =     7.011596
 CELL| Vector c [angstrom]:       0.000     0.000    20.000   |c| =    20.000000
 CELL| Angle (b,c), alpha [degree]:                                    90.000000
 CELL| Angle (a,c), beta  [degree]:                                    90.000000
 CELL| Angle (a,b), gamma [degree]:                                    90.000000
 CELL| Numerically orthorhombic:                                             YES
 CELL| Periodicity                                                           XYZ

 CELL_REF| Volume [angstrom^3]:                                       983.249569
 CELL_REF| Vector a [angstrom     7.012     0.000     0.000   |a| =     7.011596
 CELL_REF| Vector b [angstrom     0.000     7.012     0.000   |b| =     7.011596
 CELL_REF| Vector c [angstrom     0.000     0.000    20.000   |c| =    20.000000
 CELL_REF| Angle (b,c), alpha [degree]:                                90.000000
 CELL_REF| Angle (a,c), beta  [degree]:                                90.000000
 CELL_REF| Angle (a,b), gamma [degree]:                                90.000000
 CELL_REF| Numerically orthorhombic:                                         YES
 CELL_REF| Periodicity                                                       XYZ

 *** WARNING in cryssym.F:165 :: Symmetry library SPGLIB not available ***


 *******************************************************************************
                                    Kpoints
 *******************************************************************************
 BRILLOUIN| K-point scheme                                        Monkhorst-Pack
 BRILLOUIN| K-Point grid                                             4    4    1
 BRILLOUIN| Accuracy in Symmetry determination                      0.100000E-05
 BRILLOUIN| K-Point point group symmetrization                               OFF
 BRILLOUIN| Wavefunction type                                            COMPLEX
 BRILLOUIN| List of Kpoints [2 Pi/Bohr]                                        8
 BRILLOUIN| Number           Weight            X              Y              Z
 BRILLOUIN|     1           0.12500       -0.37500       -0.37500        0.00000
 BRILLOUIN|     2           0.12500       -0.37500       -0.12500        0.00000
 BRILLOUIN|     3           0.12500       -0.37500        0.12500        0.00000
 BRILLOUIN|     4           0.12500       -0.37500        0.37500        0.00000
 BRILLOUIN|     5           0.12500       -0.12500       -0.37500        0.00000
 BRILLOUIN|     6           0.12500       -0.12500       -0.12500        0.00000
 BRILLOUIN|     7           0.12500       -0.12500        0.12500        0.00000
 BRILLOUIN|     8           0.12500       -0.12500        0.37500        0.00000
 *******************************************************************************

 *******************************************************************************
 *******************************************************************************
 **                                                                           **
 **     #####                         ##              ##                      **
 **    ##   ##            ##          ##              ##                      **
 **   ##     ##                       ##            ######                    **
 **   ##     ##  ##   ##  ##   #####  ##  ##   ####   ##    #####    #####    **
 **   ##     ##  ##   ##  ##  ##      ## ##   ##      ##   ##   ##  ##   ##   **
 **   ##  ## ##  ##   ##  ##  ##      ####     ###    ##   ######   ######    **
 **    ##  ###   ##   ##  ##  ##      ## ##      ##   ##   ##       ##        **
 **     #######   #####   ##   #####  ##  ##  ####    ##    #####   ##        **
 **           ##                                                    ##        **
 **                                                                           **
 **                                                ... make the atoms dance   **
 **                                                                           **
 **            Copyright (C) by CP2K developers group (2000-2023)             **
 **                      J. Chem. Phys. 152, 194103 (2020)                    **
 **                                                                           **
 *******************************************************************************

 *** WARNING in qs_environment.F:1456 :: Number of electrons will be ***
 *** overwritten by NELEC_ALPHA and NELEC_BETA, multiplicity will be ***
 *** ignored.                                                        ***

 Number of electrons should be                                               576
 Sum of NELEC_ALPHA and NELEC_BETA is                                    576.000

 *** WARNING in qs_environment.F:1488 :: NELEC_ALPHA is not an integer, ***
 *** many features will not be supported.                               ***


 *** WARNING in qs_environment.F:1500 :: NELEC_BETA is not an integer, ***
 *** many features will not be supported.                              ***


 *** WARNING in qs_environment.F:1532 :: More ADDED_MOs requested for beta ***
 *** spin than available.                                                  ***


 *** WARNING in qs_environment.F:1548 :: More added MOs requested than     ***
 *** available. The full set of unoccupied MOs will be used. Use           ***
 *** 'ADDED_MOS -1' to always use all available MOs and to get rid of this ***
 *** warning.                                                              ***


 DFT| Spin unrestricted (spin-polarized) Kohn-Sham calculation               UKS
 DFT| Multiplicity                                                             1
 DFT| Number of spin states                                                    2
 DFT| Charge                                                                   0
 DFT| Self-interaction correction (SIC)                                       NO
 DFT| Cutoffs: density                                              1.000000E-10
 DFT|          gradient                                             1.000000E-10
 DFT|          tau                                                  1.000000E-10
 DFT|          cutoff_smoothing_range                               0.000000E+00
 DFT| XC density smoothing                                                  NONE
 DFT| XC derivatives                                                          PW

 FUNCTIONAL| PBE:
 FUNCTIONAL| J.P.Perdew, K.Burke, M.Ernzerhof, Phys. Rev. Letter, vol. 77, n 18,
 FUNCTIONAL|  pp. 3865-3868, (1996){spin polarized}                             

 vdW POTENTIAL|                                                   Pair Potential
 vdW POTENTIAL|          DFT-D3 (Version 3.1)
 vdW POTENTIAL|          Potential Form: S. Grimme et al, JCP 132: 154104 (2010)
 vdW POTENTIAL|          Zero Damping
 vdW POTENTIAL|          Cutoff Radius [Bohr]:                             20.00
 vdW POTENTIAL|          s6 Scaling Factor:                               1.0000
 vdW POTENTIAL|          sr6 Scaling Factor:                              1.2170
 vdW POTENTIAL|          s8 Scaling Factor:                               0.7220
 vdW POTENTIAL|          Cutoff for CN calculation:                   0.1000E-05

 QS| Method:                                                                 GPW
 QS| Density plane wave grid type                        NON-SPHERICAL FULLSPACE
 QS| Number of grid levels:                                                    5
 QS| Density cutoff [a.u.]:                                                300.0
 QS| Multi grid cutoff [a.u.]: 1) grid level                               300.0
 QS|                           2) grid level                               100.0
 QS|                           3) grid level                                33.3
 QS|                           4) grid level                                11.1
 QS|                           5) grid level                                 3.7
 QS| Grid level progression factor:                                          3.0
 QS| Relative density cutoff [a.u.]:                                        30.0
 QS| Interaction thresholds: eps_pgf_orb:                                1.0E-06
 QS|                         eps_filter_matrix:                          0.0E+00
 QS|                         eps_core_charge:                            1.0E-14
 QS|                         eps_rho_gspace:                             1.0E-12
 QS|                         eps_rho_rspace:                             1.0E-12
 QS|                         eps_gvg_rspace:                             1.0E-06
 QS|                         eps_ppl:                                    1.0E-02
 QS|                         eps_ppnl:                                   1.0E-08


 ATOMIC KIND INFORMATION

  1. Atomic kind: Ni_i                                  Number of atoms:      16

     Orbital Basis Set                                        DZVP-MOLOPT-SR-GTH

       Number of orbital shell sets:                                           1
       Number of orbital shells:                                               8
       Number of primitive Cartesian functions:                                6
       Number of Cartesian basis functions:                                   31
       Number of spherical basis functions:                                   26
       Norm type:                                                              2

       Normalised Cartesian orbitals:

                        Set   Shell   Orbital            Exponent    Coefficient

                          1       1    2s               10.077428      -0.684558
                                                         5.847736      -0.844524
                                                         2.494033       1.088856
                                                         0.988355       0.395503
                                                         0.344978       0.010224
                                                         0.099466      -0.003250

                          1       2    3s               10.077428       0.096747
                                                         5.847736       0.162504
                                                         2.494033      -0.297192
                                                         0.988355      -0.319752
                                                         0.344978       0.088318
                                                         0.099466       0.118587

                          1       3    4s               10.077428       0.036437
                                                         5.847736      -0.381480
                                                         2.494033       0.003759
                                                         0.988355      -1.048256
                                                         0.344978       0.855825
                                                         0.099466      -0.176350

                          1       4    3px              10.077428      -3.133913
                                                         5.847736       3.027656
                                                         2.494033       2.353227
                                                         0.988355       0.554184
                                                         0.344978       0.019462
                                                         0.099466      -0.000291
                          1       4    3py              10.077428      -3.133913
                                                         5.847736       3.027656
                                                         2.494033       2.353227
                                                         0.988355       0.554184
                                                         0.344978       0.019462
                                                         0.099466      -0.000291
                          1       4    3pz              10.077428      -3.133913
                                                         5.847736       3.027656
                                                         2.494033       2.353227
                                                         0.988355       0.554184
                                                         0.344978       0.019462
                                                         0.099466      -0.000291

                          1       5    4px              10.077428      -0.112729
                                                         5.847736      -0.114008
                                                         2.494033      -0.347303
                                                         0.988355      -0.110323
                                                         0.344978       0.154096
                                                         0.099466       0.058386
                          1       5    4py              10.077428      -0.112729
                                                         5.847736      -0.114008
                                                         2.494033      -0.347303
                                                         0.988355      -0.110323
                                                         0.344978       0.154096
                                                         0.099466       0.058386
                          1       5    4pz              10.077428      -0.112729
                                                         5.847736      -0.114008
                                                         2.494033      -0.347303
                                                         0.988355      -0.110323
                                                         0.344978       0.154096
                                                         0.099466       0.058386

                          1       6    4dx2             10.077428       8.232726
                                                         5.847736       9.105758
                                                         2.494033       2.849835
                                                         0.988355       0.554319
                                                         0.344978       0.067245
                                                         0.099466       0.001940
                          1       6    4dxy             10.077428      14.259500
                                                         5.847736      15.771636
                                                         2.494033       4.936060
                                                         0.988355       0.960109
                                                         0.344978       0.116472
                                                         0.099466       0.003360
                          1       6    4dxz             10.077428      14.259500
                                                         5.847736      15.771636
                                                         2.494033       4.936060
                                                         0.988355       0.960109
                                                         0.344978       0.116472
                                                         0.099466       0.003360
                          1       6    4dy2             10.077428       8.232726
                                                         5.847736       9.105758
                                                         2.494033       2.849835
                                                         0.988355       0.554319
                                                         0.344978       0.067245
                                                         0.099466       0.001940
                          1       6    4dyz             10.077428      14.259500
                                                         5.847736      15.771636
                                                         2.494033       4.936060
                                                         0.988355       0.960109
                                                         0.344978       0.116472
                                                         0.099466       0.003360
                          1       6    4dz2             10.077428       8.232726
                                                         5.847736       9.105758
                                                         2.494033       2.849835
                                                         0.988355       0.554319
                                                         0.344978       0.067245
                                                         0.099466       0.001940

                          1       7    5dx2             10.077428      -2.715373
                                                         5.847736      -4.020640
                                                         2.494033      -1.397569
                                                         0.988355      -0.076143
                                                         0.344978       0.033435
                                                         0.099466       0.026032
                          1       7    5dxy             10.077428      -4.703164
                                                         5.847736      -6.963952
                                                         2.494033      -2.420661
                                                         0.988355      -0.131883
                                                         0.344978       0.057911
                                                         0.099466       0.045088
                          1       7    5dxz             10.077428      -4.703164
                                                         5.847736      -6.963952
                                                         2.494033      -2.420661
                                                         0.988355      -0.131883
                                                         0.344978       0.057911
                                                         0.099466       0.045088
                          1       7    5dy2             10.077428      -2.715373
                                                         5.847736      -4.020640
                                                         2.494033      -1.397569
                                                         0.988355      -0.076143
                                                         0.344978       0.033435
                                                         0.099466       0.026032
                          1       7    5dyz             10.077428      -4.703164
                                                         5.847736      -6.963952
                                                         2.494033      -2.420661
                                                         0.988355      -0.131883
                                                         0.344978       0.057911
                                                         0.099466       0.045088
                          1       7    5dz2             10.077428      -2.715373
                                                         5.847736      -4.020640
                                                         2.494033      -1.397569
                                                         0.988355      -0.076143
                                                         0.344978       0.033435
                                                         0.099466       0.026032

                          1       8    5fx3             10.077428      -0.467694
                                                         5.847736       0.618100
                                                         2.494033       0.066069
                                                         0.988355       0.262898
                                                         0.344978       0.004720
                                                         0.099466       0.007748
                          1       8    5fx2y            10.077428      -1.045795
                                                         5.847736       1.382114
                                                         2.494033       0.147734
                                                         0.988355       0.587859
                                                         0.344978       0.010555
                                                         0.099466       0.017325
                          1       8    5fx2z            10.077428      -1.045795
                                                         5.847736       1.382114
                                                         2.494033       0.147734
                                                         0.988355       0.587859
                                                         0.344978       0.010555
                                                         0.099466       0.017325
                          1       8    5fxy2            10.077428      -1.045795
                                                         5.847736       1.382114
                                                         2.494033       0.147734
                                                         0.988355       0.587859
                                                         0.344978       0.010555
                                                         0.099466       0.017325
                          1       8    5fxyz            10.077428      -1.811371
                                                         5.847736       2.393892
                                                         2.494033       0.255883
                                                         0.988355       1.018201
                                                         0.344978       0.018282
                                                         0.099466       0.030008
                          1       8    5fxz2            10.077428      -1.045795
                                                         5.847736       1.382114
                                                         2.494033       0.147734
                                                         0.988355       0.587859
                                                         0.344978       0.010555
                                                         0.099466       0.017325
                          1       8    5fy3             10.077428      -0.467694
                                                         5.847736       0.618100
                                                         2.494033       0.066069
                                                         0.988355       0.262898
                                                         0.344978       0.004720
                                                         0.099466       0.007748
                          1       8    5fy2z            10.077428      -1.045795
                                                         5.847736       1.382114
                                                         2.494033       0.147734
                                                         0.988355       0.587859
                                                         0.344978       0.010555
                                                         0.099466       0.017325
                          1       8    5fyz2            10.077428      -1.045795
                                                         5.847736       1.382114
                                                         2.494033       0.147734
                                                         0.988355       0.587859
                                                         0.344978       0.010555
                                                         0.099466       0.017325
                          1       8    5fz3             10.077428      -0.467694
                                                         5.847736       0.618100
                                                         2.494033       0.066069
                                                         0.988355       0.262898
                                                         0.344978       0.004720
                                                         0.099466       0.007748

       Atomic covalent radius [Angstrom]:                                  1.150

       Atomic van der Waals radius [Angstrom]:                             1.630

     GTH Potential information for                                   GTH-PBE-q18

       Description:                       Goedecker-Teter-Hutter pseudopotential
                                           Goedecker et al., PRB 54, 1703 (1996)
                                          Hartwigsen et al., PRB 58, 3641 (1998)
                                                      Krack, TCA 114, 145 (2005)

       Gaussian exponent of the core charge distribution:               4.081633
       Electronic configuration (s p d ...):                           4   6   8

       Parameters of the local part of the GTH pseudopotential:

                          rloc        C1          C2          C3          C4
                        0.350000    2.102166    0.648484

       Parameters of the non-local part of the GTH pseudopotential:

                   l      r(l)      h(i,j,l)

                   0    0.261295    0.622658    9.970227
                                    9.970227  -12.871507
                   1    0.224253  -11.142708   12.429566
                                   12.429566  -14.706861
                   2    0.215348  -12.628146

  2. Atomic kind: Ni_b                                  Number of atoms:      16

     Orbital Basis Set                                        DZVP-MOLOPT-SR-GTH

       Number of orbital shell sets:                                           1
       Number of orbital shells:                                               8
       Number of primitive Cartesian functions:                                6
       Number of Cartesian basis functions:                                   31
       Number of spherical basis functions:                                   26
       Norm type:                                                              2

       Normalised Cartesian orbitals:

                        Set   Shell   Orbital            Exponent    Coefficient

                          1       1    2s               10.077428      -0.684558
                                                         5.847736      -0.844524
                                                         2.494033       1.088856
                                                         0.988355       0.395503
                                                         0.344978       0.010224
                                                         0.099466      -0.003250

                          1       2    3s               10.077428       0.096747
                                                         5.847736       0.162504
                                                         2.494033      -0.297192
                                                         0.988355      -0.319752
                                                         0.344978       0.088318
                                                         0.099466       0.118587

                          1       3    4s               10.077428       0.036437
                                                         5.847736      -0.381480
                                                         2.494033       0.003759
                                                         0.988355      -1.048256
                                                         0.344978       0.855825
                                                         0.099466      -0.176350

                          1       4    3px              10.077428      -3.133913
                                                         5.847736       3.027656
                                                         2.494033       2.353227
                                                         0.988355       0.554184
                                                         0.344978       0.019462
                                                         0.099466      -0.000291
                          1       4    3py              10.077428      -3.133913
                                                         5.847736       3.027656
                                                         2.494033       2.353227
                                                         0.988355       0.554184
                                                         0.344978       0.019462
                                                         0.099466      -0.000291
                          1       4    3pz              10.077428      -3.133913
                                                         5.847736       3.027656
                                                         2.494033       2.353227
                                                         0.988355       0.554184
                                                         0.344978       0.019462
                                                         0.099466      -0.000291

                          1       5    4px              10.077428      -0.112729
                                                         5.847736      -0.114008
                                                         2.494033      -0.347303
                                                         0.988355      -0.110323
                                                         0.344978       0.154096
                                                         0.099466       0.058386
                          1       5    4py              10.077428      -0.112729
                                                         5.847736      -0.114008
                                                         2.494033      -0.347303
                                                         0.988355      -0.110323
                                                         0.344978       0.154096
                                                         0.099466       0.058386
                          1       5    4pz              10.077428      -0.112729
                                                         5.847736      -0.114008
                                                         2.494033      -0.347303
                                                         0.988355      -0.110323
                                                         0.344978       0.154096
                                                         0.099466       0.058386

                          1       6    4dx2             10.077428       8.232726
                                                         5.847736       9.105758
                                                         2.494033       2.849835
                                                         0.988355       0.554319
                                                         0.344978       0.067245
                                                         0.099466       0.001940
                          1       6    4dxy             10.077428      14.259500
                                                         5.847736      15.771636
                                                         2.494033       4.936060
                                                         0.988355       0.960109
                                                         0.344978       0.116472
                                                         0.099466       0.003360
                          1       6    4dxz             10.077428      14.259500
                                                         5.847736      15.771636
                                                         2.494033       4.936060
                                                         0.988355       0.960109
                                                         0.344978       0.116472
                                                         0.099466       0.003360
                          1       6    4dy2             10.077428       8.232726
                                                         5.847736       9.105758
                                                         2.494033       2.849835
                                                         0.988355       0.554319
                                                         0.344978       0.067245
                                                         0.099466       0.001940
                          1       6    4dyz             10.077428      14.259500
                                                         5.847736      15.771636
                                                         2.494033       4.936060
                                                         0.988355       0.960109
                                                         0.344978       0.116472
                                                         0.099466       0.003360
                          1       6    4dz2             10.077428       8.232726
                                                         5.847736       9.105758
                                                         2.494033       2.849835
                                                         0.988355       0.554319
                                                         0.344978       0.067245
                                                         0.099466       0.001940

                          1       7    5dx2             10.077428      -2.715373
                                                         5.847736      -4.020640
                                                         2.494033      -1.397569
                                                         0.988355      -0.076143
                                                         0.344978       0.033435
                                                         0.099466       0.026032
                          1       7    5dxy             10.077428      -4.703164
                                                         5.847736      -6.963952
                                                         2.494033      -2.420661
                                                         0.988355      -0.131883
                                                         0.344978       0.057911
                                                         0.099466       0.045088
                          1       7    5dxz             10.077428      -4.703164
                                                         5.847736      -6.963952
                                                         2.494033      -2.420661
                                                         0.988355      -0.131883
                                                         0.344978       0.057911
                                                         0.099466       0.045088
                          1       7    5dy2             10.077428      -2.715373
                                                         5.847736      -4.020640
                                                         2.494033      -1.397569
                                                         0.988355      -0.076143
                                                         0.344978       0.033435
                                                         0.099466       0.026032
                          1       7    5dyz             10.077428      -4.703164
                                                         5.847736      -6.963952
                                                         2.494033      -2.420661
                                                         0.988355      -0.131883
                                                         0.344978       0.057911
                                                         0.099466       0.045088
                          1       7    5dz2             10.077428      -2.715373
                                                         5.847736      -4.020640
                                                         2.494033      -1.397569
                                                         0.988355      -0.076143
                                                         0.344978       0.033435
                                                         0.099466       0.026032

                          1       8    5fx3             10.077428      -0.467694
                                                         5.847736       0.618100
                                                         2.494033       0.066069
                                                         0.988355       0.262898
                                                         0.344978       0.004720
                                                         0.099466       0.007748
                          1       8    5fx2y            10.077428      -1.045795
                                                         5.847736       1.382114
                                                         2.494033       0.147734
                                                         0.988355       0.587859
                                                         0.344978       0.010555
                                                         0.099466       0.017325
                          1       8    5fx2z            10.077428      -1.045795
                                                         5.847736       1.382114
                                                         2.494033       0.147734
                                                         0.988355       0.587859
                                                         0.344978       0.010555
                                                         0.099466       0.017325
                          1       8    5fxy2            10.077428      -1.045795
                                                         5.847736       1.382114
                                                         2.494033       0.147734
                                                         0.988355       0.587859
                                                         0.344978       0.010555
                                                         0.099466       0.017325
                          1       8    5fxyz            10.077428      -1.811371
                                                         5.847736       2.393892
                                                         2.494033       0.255883
                                                         0.988355       1.018201
                                                         0.344978       0.018282
                                                         0.099466       0.030008
                          1       8    5fxz2            10.077428      -1.045795
                                                         5.847736       1.382114
                                                         2.494033       0.147734
                                                         0.988355       0.587859
                                                         0.344978       0.010555
                                                         0.099466       0.017325
                          1       8    5fy3             10.077428      -0.467694
                                                         5.847736       0.618100
                                                         2.494033       0.066069
                                                         0.988355       0.262898
                                                         0.344978       0.004720
                                                         0.099466       0.007748
                          1       8    5fy2z            10.077428      -1.045795
                                                         5.847736       1.382114
                                                         2.494033       0.147734
                                                         0.988355       0.587859
                                                         0.344978       0.010555
                                                         0.099466       0.017325
                          1       8    5fyz2            10.077428      -1.045795
                                                         5.847736       1.382114
                                                         2.494033       0.147734
                                                         0.988355       0.587859
                                                         0.344978       0.010555
                                                         0.099466       0.017325
                          1       8    5fz3             10.077428      -0.467694
                                                         5.847736       0.618100
                                                         2.494033       0.066069
                                                         0.988355       0.262898
                                                         0.344978       0.004720
                                                         0.099466       0.007748

       Atomic covalent radius [Angstrom]:                                  1.150

       Atomic van der Waals radius [Angstrom]:                             1.630

     GTH Potential information for                                   GTH-PBE-q18

       Description:                       Goedecker-Teter-Hutter pseudopotential
                                           Goedecker et al., PRB 54, 1703 (1996)
                                          Hartwigsen et al., PRB 58, 3641 (1998)
                                                      Krack, TCA 114, 145 (2005)

       Gaussian exponent of the core charge distribution:               4.081633
       Electronic configuration (s p d ...):                           4   6   8

       Parameters of the local part of the GTH pseudopotential:

                          rloc        C1          C2          C3          C4
                        0.350000    2.102166    0.648484

       Parameters of the non-local part of the GTH pseudopotential:

                   l      r(l)      h(i,j,l)

                   0    0.261295    0.622658    9.970227
                                    9.970227  -12.871507
                   1    0.224253  -11.142708   12.429566
                                   12.429566  -14.706861
                   2    0.215348  -12.628146


 MOLECULE KIND INFORMATION


 All atoms are their own molecule, skipping detailed information


 TOTAL NUMBERS AND MAXIMUM NUMBERS

  Total number of            - Atomic kinds:                                   2
                             - Atoms:                                         32
                             - Shell sets:                                    32
                             - Shells:                                       256
                             - Primitive Cartesian functions:                192
                             - Cartesian basis functions:                    992
                             - Spherical basis functions:                    832

  Maximum angular momentum of- Orbital basis functions:                        3
                             - Local part of the GTH pseudopotential:          2
                             - Non-local part of the GTH pseudopotential:      3


 MODULE QUICKSTEP: ATOMIC COORDINATES IN ANGSTROM

   Atom Kind Element         X             Y             Z       Z(eff)     Mass
      1    1 Ni   28      0.876298      0.876298      7.370500  18.0000  58.6934
      2    1 Ni   28      0.876298      4.382298      7.370500  18.0000  58.6934
      3    1 Ni   28      2.629298      2.629298      7.370500  18.0000  58.6934
      4    1 Ni   28      2.629298      6.135298      7.370500  18.0000  58.6934
      5    1 Ni   28      4.382298      0.876298      7.370500  18.0000  58.6934
      6    1 Ni   28      4.382298      4.382298      7.370500  18.0000  58.6934
      7    1 Ni   28      6.135298      2.629298      7.370500  18.0000  58.6934
      8    1 Ni   28      6.135298      6.135298      7.370500  18.0000  58.6934
      9    2 Ni   28      0.876298      2.629298      9.123500  18.0000  58.6934
     10    2 Ni   28      0.876298      6.135298      9.123500  18.0000  58.6934
     11    2 Ni   28      2.629298      0.876298      9.123500  18.0000  58.6934
     12    2 Ni   28      2.629298      4.382298      9.123500  18.0000  58.6934
     13    2 Ni   28      4.382298      2.629298      9.123500  18.0000  58.6934
     14    2 Ni   28      4.382298      6.135298      9.123500  18.0000  58.6934
     15    2 Ni   28      6.135298      0.876298      9.123500  18.0000  58.6934
     16    2 Ni   28      6.135298      4.382298      9.123500  18.0000  58.6934
     17    2 Ni   28      0.876298      0.876298     10.876500  18.0000  58.6934
     18    2 Ni   28      0.876298      4.382298     10.876500  18.0000  58.6934
     19    2 Ni   28      2.629298      2.629298     10.876500  18.0000  58.6934
     20    2 Ni   28      2.629298      6.135298     10.876500  18.0000  58.6934
     21    2 Ni   28      4.382298      0.876298     10.876500  18.0000  58.6934
     22    2 Ni   28      4.382298      4.382298     10.876500  18.0000  58.6934
     23    2 Ni   28      6.135298      2.629298     10.876500  18.0000  58.6934
     24    2 Ni   28      6.135298      6.135298     10.876500  18.0000  58.6934
     25    1 Ni   28      0.876298      2.629298     12.629500  18.0000  58.6934
     26    1 Ni   28      0.876298      6.135298     12.629500  18.0000  58.6934
     27    1 Ni   28      2.629298      0.876298     12.629500  18.0000  58.6934
     28    1 Ni   28      2.629298      4.382298     12.629500  18.0000  58.6934
     29    1 Ni   28      4.382298      2.629298     12.629500  18.0000  58.6934
     30    1 Ni   28      4.382298      6.135298     12.629500  18.0000  58.6934
     31    1 Ni   28      6.135298      0.876298     12.629500  18.0000  58.6934
     32    1 Ni   28      6.135298      4.382298     12.629500  18.0000  58.6934



 SCF PARAMETERS         Density guess:                                    ATOMIC
                        --------------------------------------------------------
                        max_scf:                                             500
                        max_scf_history:                                       0
                        max_diis:                                              4
                        --------------------------------------------------------
                        eps_scf:                                        1.00E-03
                        eps_scf_history:                                0.00E+00
                        eps_diis:                                       1.00E-01
                        eps_eigval:                                     1.00E-05
                        --------------------------------------------------------
                        level_shift [a.u.]:                             0.000000
                        added MOs                                       534  553
                        --------------------------------------------------------
                        Mixing method:                            BROYDEN_MIXING
                                                charge density mixing in g-space
                        --------------------------------------------------------
                        Smear method:                                FERMI_DIRAC
                        Electronic temperature [K]:                       2000.0
                        Electronic temperature [a.u.]:                  6.33E-03
                        Accuracy threshold:                             1.00E-10
                        --------------------------------------------------------
                        No outer SCF

 PW_GRID| Information for grid number                                          1
 PW_GRID| Grid distributed over                                   128 processors
 PW_GRID| Real space group dimensions                                     8   16
 PW_GRID| the grid is blocked:                                               YES
 PW_GRID| Cutoff [a.u.]                                                    300.0
 PW_GRID| spherical cutoff:                                                   NO
 PW_GRID|   Bounds   1            -54      53                Points:         108
 PW_GRID|   Bounds   2            -54      53                Points:         108
 PW_GRID|   Bounds   3           -150     149                Points:         300
 PW_GRID| Volume element (a.u.^3)  0.1896E-02     Volume (a.u.^3)      6635.2971
 PW_GRID| Grid span                                                    FULLSPACE
 PW_GRID|   Distribution                         Average         Max         Min
 PW_GRID|   G-Vectors                            27337.5       28728       25272
 PW_GRID|   G-Rays                                 253.1         266         234
 PW_GRID|   Real Space Points                    27337.5       28728       25272

 PW_GRID| Information for grid number                                          2
 PW_GRID| Number of the reference grid                                         1
 PW_GRID| Grid distributed over                                   128 processors
 PW_GRID| Real space group dimensions                                     8   16
 PW_GRID| the grid is blocked:                                                NO
 PW_GRID| Cutoff [a.u.]                                                    100.0
 PW_GRID| spherical cutoff:                                                   NO
 PW_GRID|   Bounds   1            -30      29                Points:          60
 PW_GRID|   Bounds   2            -30      29                Points:          60
 PW_GRID|   Bounds   3            -90      89                Points:         180
 PW_GRID| Volume element (a.u.^3)  0.1024E-01     Volume (a.u.^3)      6635.2971
 PW_GRID| Grid span                                                    FULLSPACE
 PW_GRID|   Distribution                         Average         Max         Min
 PW_GRID|   G-Vectors                             5062.5       15960           0
 PW_GRID|   G-Rays                                  84.4         266           0
 PW_GRID|   Real Space Points                     5062.5        5760        3780

 PW_GRID| Information for grid number                                          3
 PW_GRID| Number of the reference grid                                         1
 PW_GRID| Grid distributed over                                   128 processors
 PW_GRID| Real space group dimensions                                     8   16
 PW_GRID| the grid is blocked:                                                NO
 PW_GRID| Cutoff [a.u.]                                                     33.3
 PW_GRID| spherical cutoff:                                                   NO
 PW_GRID|   Bounds   1            -18      17                Points:          36
 PW_GRID|   Bounds   2            -18      17                Points:          36
 PW_GRID|   Bounds   3            -50      49                Points:         100
 PW_GRID| Volume element (a.u.^3)  0.5120E-01     Volume (a.u.^3)      6635.2971
 PW_GRID| Grid span                                                    FULLSPACE
 PW_GRID|   Distribution                         Average         Max         Min
 PW_GRID|   G-Vectors                             1012.5        9576           0
 PW_GRID|   G-Rays                                  28.1         266           0
 PW_GRID|   Real Space Points                     1012.5        1500         800

 PW_GRID| Information for grid number                                          4
 PW_GRID| Number of the reference grid                                         1
 PW_GRID| Grid distributed over                                   128 processors
 PW_GRID| Real space group dimensions                                     8   16
 PW_GRID| the grid is blocked:                                                NO
 PW_GRID| Cutoff [a.u.]                                                     11.1
 PW_GRID| spherical cutoff:                                                   NO
 PW_GRID|   Bounds   1            -10       9                Points:          20
 PW_GRID|   Bounds   2            -10       9                Points:          20
 PW_GRID|   Bounds   3            -30      29                Points:          60
 PW_GRID| Volume element (a.u.^3)  0.2765         Volume (a.u.^3)      6635.2971
 PW_GRID| Grid span                                                    FULLSPACE
 PW_GRID|   Distribution                         Average         Max         Min
 PW_GRID|   G-Vectors                              187.5        3800           0
 PW_GRID|   G-Rays                                   9.4         190           0
 PW_GRID|   Real Space Points                      187.5         360         120

 PW_GRID| Information for grid number                                          5
 PW_GRID| Number of the reference grid                                         1
 PW_GRID| Grid distributed over                                   128 processors
 PW_GRID| Real space group dimensions                                     8   16
 PW_GRID| the grid is blocked:                                                NO
 PW_GRID| Cutoff [a.u.]                                                      3.7
 PW_GRID| spherical cutoff:                                                   NO
 PW_GRID|   Bounds   1             -6       5                Points:          12
 PW_GRID|   Bounds   2             -6       5                Points:          12
 PW_GRID|   Bounds   3            -18      17                Points:          36
 PW_GRID| Volume element (a.u.^3)   1.280         Volume (a.u.^3)      6635.2971
 PW_GRID| Grid span                                                    FULLSPACE
 PW_GRID|   Distribution                         Average         Max         Min
 PW_GRID|   G-Vectors                               40.5        1296           0
 PW_GRID|   G-Rays                                   3.4         108           0
 PW_GRID|   Real Space Points                       40.5          72           0

 POISSON| Solver                                                        PERIODIC
 POISSON| Periodicity                                                        XYZ

 RS_GRID| Information for grid number                                          1
 RS_GRID|   Bounds   1            -54      53                Points:         108
 RS_GRID|   Bounds   2            -54      53                Points:         108
 RS_GRID|   Bounds   3           -150     149                Points:         300
 RS_GRID| Real space distribution over                                  8 groups
 RS_GRID| Real space distribution along direction                              2
 RS_GRID| Border size                                                         28
 RS_GRID| Real space distribution over                                 16 groups
 RS_GRID| Real space distribution along direction                              3
 RS_GRID| Border size                                                         28
 RS_GRID|   Distribution                         Average         Max         Min
 RS_GRID|   Planes                                  69.5          70          69
 RS_GRID|   Distribution                         Average         Max         Min
 RS_GRID|   Planes                                  74.8          75          74

 RS_GRID| Information for grid number                                          2
 RS_GRID|   Bounds   1            -30      29                Points:          60
 RS_GRID|   Bounds   2            -30      29                Points:          60
 RS_GRID|   Bounds   3            -90      89                Points:         180
 RS_GRID| Real space fully replicated
 RS_GRID| Group size                                                           1

 RS_GRID| Information for grid number                                          3
 RS_GRID|   Bounds   1            -18      17                Points:          36
 RS_GRID|   Bounds   2            -18      17                Points:          36
 RS_GRID|   Bounds   3            -50      49                Points:         100
 RS_GRID| Real space fully replicated
 RS_GRID| Group size                                                           1

 RS_GRID| Information for grid number                                          4
 RS_GRID|   Bounds   1            -10       9                Points:          20
 RS_GRID|   Bounds   2            -10       9                Points:          20
 RS_GRID|   Bounds   3            -30      29                Points:          60
 RS_GRID| Real space fully replicated
 RS_GRID| Group size                                                           1

 RS_GRID| Information for grid number                                          5
 RS_GRID|   Bounds   1             -6       5                Points:          12
 RS_GRID|   Bounds   2             -6       5                Points:          12
 RS_GRID|   Bounds   3            -18      17                Points:          36
 RS_GRID| Real space fully replicated
 RS_GRID| Group size                                                           1

 Spin 1

 Number of electrons:                                                        297.600
 Number of occupied orbitals:                                                298
 Number of molecular orbitals:                                               832

 Spin 2

 Number of electrons:                                                        278.400
 Number of occupied orbitals:                                                279
 Number of molecular orbitals:                                               832

 Number of orbital functions:                                                832
 Number of independent orbital functions:                                    832

 Extrapolation method: initial_guess

 Atomic guess: The first density matrix is obtained in terms of atomic orbitals
               and electronic configurations assigned to each atomic kind

 Guess for atomic kind: Ni_i

 Electronic structure
    Total number of core electrons                                         10.00
    Total number of valence electrons                                      18.00
    Total number of electrons                                              28.00
    Multiplicity                                                         doublet
    Alpha Electrons
    S   [  1.00  1.00] 1.00  1.00
    P   [  3.00] 3.00
    D      4.35
    Beta Electrons
    S   [  1.00  1.00] 1.00  1.00
    P   [  3.00] 3.00
    D      3.65


 *******************************************************************************
                  Iteration          Convergence                     Energy [au]
 *******************************************************************************
                          1         1.51729                    -167.067424631347
                          2         15.3902                    -156.642654318634
                          3         2.33433                    -168.319355313541
                          4        0.206730                    -168.609905008081
                          5        0.814175E-01                -168.612873080494
                          6        0.173318E-01                -168.613470181066
                          7        0.290432E-02                -168.613543571401
                          8        0.311825E-02                -168.613543401474
                          9        0.179670E-03                -168.613544404477
                         10        0.169386E-02                -168.613544207811
                         11        0.473341E-03                -168.613544360253
                         12        0.165417E-03                -168.613544400419
                         13        0.162622E-03                -168.613544401489
                         14        0.158325E-03                -168.613544403900
                         15        0.177007E-03                -168.613544402509
                         16        0.138916E-03                -168.613544404900
                         17        0.934549E-04                -168.613544406149
                         18        0.119916E-03                -168.613544405789
                         19        0.131607E-03                -168.613544405591
                         20        0.169309E-03                -168.613544404773
                         21        0.551337E-04                -168.613544406656
                         22        0.382664E-04                -168.613544406759
                         23        0.378942E-04                -168.613544406765
                         24        0.381089E-04                -168.613544406765
                         25        0.390835E-04                -168.613544406759
                         26        0.308614E-04                -168.613544406841
                         27        0.205044E-04                -168.613544406892
                         28        0.200942E-04                -168.613544406893
                         29        0.199375E-04                -168.613544406893
                         30        0.200198E-04                -168.613544406894
                         31        0.161325E-04                -168.613544406903
                         32        0.330614E-05                -168.613544406925
                         33        0.238713E-05                -168.613544406926
                         34        0.265439E-05                -168.613544406926
                         35        0.277073E-05                -168.613544406926
                         36        0.335175E-05                -168.613544406926
                         37        0.148809E-05                -168.613544406927
                         38        0.133447E-05                -168.613544406927
                         39        0.918735E-06                -168.613544406927

 Energy components [Hartree]           Total Energy ::         -168.613544406927
                                        Band Energy ::          -26.569761966525
                                     Kinetic Energy ::           97.306723392622
                                   Potential Energy ::         -265.920267799548
                                      Virial (-V/T) ::            2.732804666812
                                        Core Energy ::         -299.567979157577
                                          XC Energy ::          -16.227189041387
                                     Coulomb Energy ::          147.181623792037
                       Total Pseudopotential Energy ::         -396.961043505191
                       Local Pseudopotential Energy ::         -362.648291121960
                    Nonlocal Pseudopotential Energy ::          -34.312752383230
                                        Confinement ::            0.863409549921

 Orbital energies  State     Spin  L     Occupation   Energy[a.u.]    Energy[eV]

                       1    alpha  0          1.000      -4.172666   -113.544030
                       2    alpha  0          1.000      -0.181431     -4.936983
                       1     beta  0          1.000      -4.140640   -112.672541
                       2     beta  0          1.000      -0.176372     -4.799339

                       1    alpha  1          3.000      -2.578739    -70.171064
                       1     beta  1          3.000      -2.547579    -69.323162

                       1    alpha  2          4.350      -0.327039     -8.899191
                       1     beta  2          3.650      -0.300569     -8.178887


 Total Electron Density at R=0:                                         0.030422

 Guess for atomic kind: Ni_b

 Electronic structure
    Total number of core electrons                                         10.00
    Total number of valence electrons                                      18.00
    Total number of electrons                                              28.00
    Multiplicity                                                         doublet
    Alpha Electrons
    S   [  1.00  1.00] 1.00  1.00
    P   [  3.00] 3.00
    D      4.25
    Beta Electrons
    S   [  1.00  1.00] 1.00  1.00
    P   [  3.00] 3.00
    D      3.75


 *******************************************************************************
                  Iteration          Convergence                     Energy [au]
 *******************************************************************************
                          1         1.51687                    -167.065012761055
                          2         14.9817                    -156.620431300845
                          3         2.25575                    -168.317311438693
                          4        0.189210                    -168.607926092750
                          5        0.708658E-01                -168.610773319290
                          6        0.122256E-01                -168.611238205502
                          7        0.598421E-02                -168.611272268995
                          8        0.528277E-02                -168.611272438110
                          9        0.104644E-02                -168.611275321653
                         10        0.260234E-02                -168.611274926630
                         11        0.975322E-03                -168.611275328217
                         12        0.161067E-03                -168.611275447773
                         13        0.147413E-03                -168.611275446839
                         14        0.115114E-03                -168.611275449434
                         15        0.167217E-03                -168.611275445436
                         16        0.255374E-04                -168.611275450531
                         17        0.418369E-04                -168.611275450414
                         18        0.393709E-04                -168.611275450477
                         19        0.239931E-04                -168.611275450542
                         20        0.173885E-04                -168.611275450557
                         21        0.851368E-05                -168.611275450578
                         22        0.849928E-05                -168.611275450580
                         23        0.544937E-05                -168.611275450584
                         24        0.540003E-05                -168.611275450586
                         25        0.613371E-05                -168.611275450584
                         26        0.311593E-06                -168.611275450588

 Energy components [Hartree]           Total Energy ::         -168.611275450588
                                        Band Energy ::          -26.568680144499
                                     Kinetic Energy ::           97.303659243130
                                   Potential Energy ::         -265.914934693718
                                      Virial (-V/T) ::            2.732835915546
                                        Core Energy ::         -299.566189183323
                                          XC Energy ::          -16.224592878785
                                     Coulomb Energy ::          147.179506611520
                       Total Pseudopotential Energy ::         -396.956189041778
                       Local Pseudopotential Energy ::         -362.645043136649
                    Nonlocal Pseudopotential Energy ::          -34.311145905129
                                        Confinement ::            0.863406153250

 Orbital energies  State     Spin  L     Occupation   Energy[a.u.]    Energy[eV]

                       1    alpha  0          1.000      -4.168335   -113.426177
                       2    alpha  0          1.000      -0.180730     -4.917906
                       1     beta  0          1.000      -4.145459   -112.803683
                       2     beta  0          1.000      -0.177117     -4.819606

                       1    alpha  1          3.000      -2.574525    -70.056390
                       1     beta  1          3.000      -2.552268    -69.450746

                       1    alpha  2          4.250      -0.323446     -8.801405
                       1     beta  2          3.750      -0.304537     -8.286881


 Total Electron Density at R=0:                                         0.030429

 Spin 1
 Re-scaling the density matrix to get the right number of electrons for spin 1
                  # Electrons              Trace(P)               Scaling factor
                        297.600             297.600                        1.000

 Spin 2
 Re-scaling the density matrix to get the right number of electrons for spin 2
                  # Electrons              Trace(P)               Scaling factor
                        278.400             278.400                        1.000


 SCF WAVEFUNCTION OPTIMIZATION

  Step     Update method      Time    Convergence         Total energy    Change
  ------------------------------------------------------------------------------
     1 NoMix/Diag. 0.40E+00    1.7     0.87318318     -5426.4441344177 -5.43E+03
     2 Broy./Diag. 0.40E+00    1.5     0.34525163     -5353.2321867101  7.32E+01
[...]
   135 Broy./Diag. 0.40E+00    1.5     0.00758848     -5417.7924599965 -1.75E-02
   136 Broy./Diag. 0.40E+00    1.5     0.00596771     -5417.7366870372  5.58E-02
   137 Broy./Diag. 0.40E+00    1.5     0.00752930     -5417.8258483650 -8.92E-02
   138 Broy./Diag. 0.40E+00    1.5     0.00624893     -5417.7581897435  6.77E-02
   139 Broy./Diag. 0.40E+00    1.5     0.00828335     -5417.8040792762 -4.59E-02
   140 Broy./Diag. 0.40E+00    1.5     0.00788032     -5417.7663467273  3.77E-02
   141 Broy./Diag. 0.40E+00    1.5     0.00705163     -5417.8007379311 -3.44E-02
   142 Broy./Diag. 0.40E+00    1.5     0.00839393     -5417.7593294859  4.14E-02
   143 Broy./Diag. 0.40E+00    1.5     0.00780033     -5417.7943031870 -3.50E-02
   144 Broy./Diag. 0.40E+00    1.5     0.00630839     -5417.7627674796  3.15E-02
   145 Broy./Diag. 0.40E+00    1.5     0.00739218     -5417.7819126177 -1.91E-02
   146 Broy./Diag. 0.40E+00    1.5     0.00827955     -5417.7569914914  2.49E-02
   147 Broy./Diag. 0.40E+00    1.5     0.00778128     -5417.8158617154 -5.89E-02
   148 Broy./Diag. 0.40E+00    1.5     0.00836129     -5417.7470322773  6.88E-02
   149 Broy./Diag. 0.40E+00    1.5     0.00733186     -5417.8156858401 -6.87E-02
   150 Broy./Diag. 0.40E+00    1.5     0.00880677     -5417.7509857542  6.47E-02
   151 Broy./Diag. 0.40E+00    1.5     0.00806262     -5417.8039971104 -5.30E-02
   152 Broy./Diag. 0.40E+00    1.5     0.00733502     -5417.7616096780  4.24E-02
   153 Broy./Diag. 0.40E+00    1.5     0.00943857     -5417.7982886017 -3.67E-02
   154 Broy./Diag. 0.40E+00    1.5     0.00753632     -5417.7669988511  3.13E-02
   155 Broy./Diag. 0.40E+00    1.5     0.00842213     -5417.7765773777 -9.58E-03
   156 Broy./Diag. 0.40E+00    1.5     0.00865992     -5417.7807423059 -4.16E-03
   157 Broy./Diag. 0.40E+00    1.5     0.00671535     -5417.8051227297 -2.44E-02
   158 Broy./Diag. 0.40E+00    1.5     0.00540197     -5417.7388592940  6.63E-02
   159 Broy./Diag. 0.40E+00    1.5     0.00530453     -5417.8003383130 -6.15E-02
   160 Broy./Diag. 0.40E+00    1.5     0.00591577     -5417.7672799352  3.31E-02
   161 Broy./Diag. 0.40E+00    1.5     0.00452340     -5417.7794280459 -1.21E-02
   162 Broy./Diag. 0.40E+00    1.5     0.00543700     -5417.7748792743  4.55E-03
   163 Broy./Diag. 0.40E+00    1.5     0.00608812     -5417.7768385582 -1.96E-03
   164 Broy./Diag. 0.40E+00    1.5     0.00817032     -5417.7947490242 -1.79E-02
   165 Broy./Diag. 0.40E+00    1.5     0.00593047     -5417.7513123044  4.34E-02
   166 Broy./Diag. 0.40E+00    1.5     0.00616076     -5417.7982632874 -4.70E-02
   167 Broy./Diag. 0.40E+00    1.5     0.00640368     -5417.7796058256  1.87E-02
   168 Broy./Diag. 0.40E+00    1.5     0.00634910     -5417.7858721371 -6.27E-03
   169 Broy./Diag. 0.40E+00    1.5     0.00606257     -5417.7410147793  4.49E-02
   170 Broy./Diag. 0.40E+00    1.5     0.00479022     -5417.8255161558 -8.45E-02
   171 Broy./Diag. 0.40E+00    1.5     0.00423892     -5417.7587513910  6.68E-02
   172 Broy./Diag. 0.40E+00    1.5     0.00452487     -5417.7827311445 -2.40E-02
   173 Broy./Diag. 0.40E+00    1.5     0.00618091     -5417.7740768872  8.65E-03
   174 Broy./Diag. 0.40E+00    1.5     0.00621705     -5417.7832586217 -9.18E-03
   175 Broy./Diag. 0.40E+00    1.5     0.00714926     -5417.7642849443  1.90E-02
   176 Broy./Diag. 0.40E+00    1.5     0.00820992     -5417.7945727423 -3.03E-02
   177 Broy./Diag. 0.40E+00    1.5     0.00663820     -5417.7803004664  1.43E-02
   178 Broy./Diag. 0.40E+00    1.5     0.00779913     -5417.7856502389 -5.35E-03
   179 Broy./Diag. 0.40E+00    1.5     0.00739097     -5417.7691122217  1.65E-02
   180 Broy./Diag. 0.40E+00    1.5     0.00717466     -5417.7646737744  4.44E-03
   181 Broy./Diag. 0.40E+00    1.5     0.00629553     -5417.8129315457 -4.83E-02
   182 Broy./Diag. 0.40E+00    1.5     0.00522044     -5417.7333926058  7.95E-02
   183 Broy./Diag. 0.40E+00    1.5     0.00591957     -5417.8047529641 -7.14E-02
   184 Broy./Diag. 0.40E+00    1.5     0.00657890     -5417.7677375625  3.70E-02
   185 Broy./Diag. 0.40E+00    1.5     0.00574171     -5417.7951910090 -2.75E-02
   186 Broy./Diag. 0.40E+00    1.5     0.00513682     -5417.7687882049  2.64E-02
   187 Broy./Diag. 0.40E+00    1.5     0.00538904     -5417.7818712773 -1.31E-02
   188 Broy./Diag. 0.40E+00    1.5     0.00389282     -5417.7681390405  1.37E-02
   189 Broy./Diag. 0.40E+00    1.5     0.00594432     -5417.7838669348 -1.57E-02
   190 Broy./Diag. 0.40E+00    1.5     0.00671866     -5417.7650514505  1.88E-02
   191 Broy./Diag. 0.40E+00    1.5     0.00983253     -5417.8106904399 -4.56E-02
   192 Broy./Diag. 0.40E+00    1.5     0.00968549     -5417.8003757009  1.03E-02
   193 Broy./Diag. 0.40E+00    1.5     0.00791762     -5417.7065809685  9.38E-02
   194 Broy./Diag. 0.40E+00    1.5     0.00908194     -5417.8135995032 -1.07E-01
   195 Broy./Diag. 0.40E+00    1.5     0.00990603     -5417.7616859554  5.19E-02
   196 Broy./Diag. 0.40E+00    1.5     0.00892611     -5417.8073907346 -4.57E-02
   197 Broy./Diag. 0.40E+00    1.5     0.00627929     -5417.7669866142  4.04E-02
   198 Broy./Diag. 0.40E+00    1.5     0.00687839     -5417.7818719039 -1.49E-02
   199 Broy./Diag. 0.40E+00    1.5     0.00714133     -5417.7700262547  1.18E-02
   200 Broy./Diag. 0.40E+00    1.5     0.01075585     -5417.7675324500  2.49E-03
   201 Broy./Diag. 0.40E+00    1.5     0.00979956     -5417.8125762507 -4.50E-02
   202 Broy./Diag. 0.40E+00    1.5     0.01211452     -5417.7666499263  4.59E-02
   203 Broy./Diag. 0.40E+00    1.5     0.01331624     -5417.7585875852  8.06E-03
   204 Broy./Diag. 0.40E+00    1.5     0.00857986     -5417.7793460615 -2.08E-02
   205 Broy./Diag. 0.40E+00    1.5     0.00800105     -5417.8079833964 -2.86E-02
   206 Broy./Diag. 0.40E+00    1.5     0.00681050     -5417.7579499932  5.00E-02
   207 Broy./Diag. 0.40E+00    1.5     0.00851425     -5417.7962061007 -3.83E-02
   208 Broy./Diag. 0.40E+00    1.5     0.00878083     -5417.7463426642  4.99E-02
   209 Broy./Diag. 0.40E+00    1.5     0.00650472     -5417.8090716132 -6.27E-02
   210 Broy./Diag. 0.40E+00    1.5     0.00634112     -5417.7407515290  6.83E-02
   211 Broy./Diag. 0.40E+00    1.5     0.00835262     -5417.8195679439 -7.88E-02
   212 Broy./Diag. 0.40E+00    1.5     0.00644346     -5417.7546812029  6.49E-02
   213 Broy./Diag. 0.40E+00    1.5     0.00555796     -5417.7682381942 -1.36E-02
   214 Broy./Diag. 0.40E+00    1.5     0.00764189     -5417.7910496363 -2.28E-02
   215 Broy./Diag. 0.40E+00    1.5     0.00930819     -5417.7820650187  8.98E-03
   216 Broy./Diag. 0.40E+00    1.5     0.01002962     -5417.7915338494 -9.47E-03
   217 Broy./Diag. 0.40E+00    1.5     0.00741795     -5417.7471301994  4.44E-02
   218 Broy./Diag. 0.40E+00    1.5     0.00966147     -5417.8038944377 -5.68E-02
   219 Broy./Diag. 0.40E+00    1.5     0.01121212     -5417.7437644991  6.01E-02
   220 Broy./Diag. 0.40E+00    1.5     0.00865824     -5417.8260192600 -8.23E-02
   221 Broy./Diag. 0.40E+00    1.5     0.00791920     -5417.7407566518  8.53E-02
   222 Broy./Diag. 0.40E+00    1.5     0.00990292     -5417.8249528599 -8.42E-02
   223 Broy./Diag. 0.40E+00    1.5     0.00969584     -5417.7257223186  9.92E-02
   224 Broy./Diag. 0.40E+00    1.5     0.01032980     -5417.8109277709 -8.52E-02
   225 Broy./Diag. 0.40E+00    1.5     0.00961798     -5417.7662012663  4.47E-02
   226 Broy./Diag. 0.40E+00    1.5     0.01125411     -5417.7919769563 -2.58E-02
   227 Broy./Diag. 0.40E+00    1.5     0.01474244     -5417.7570013217  3.50E-02
   228 Broy./Diag. 0.40E+00    1.5     0.01382687     -5417.7628807029 -5.88E-03
   229 Broy./Diag. 0.40E+00    1.5     0.01346497     -5417.8197209105 -5.68E-02
   230 Broy./Diag. 0.40E+00    1.5     0.01414549     -5417.7375004528  8.22E-02
   231 Broy./Diag. 0.40E+00    1.5     0.01468264     -5417.8368863353 -9.94E-02
   232 Broy./Diag. 0.40E+00    1.5     0.01182902     -5417.7194795567  1.17E-01
   233 Broy./Diag. 0.40E+00    1.5     0.00956127     -5417.8169853190 -9.75E-02
   234 Broy./Diag. 0.40E+00    1.5     0.01172480     -5417.7255253111  9.15E-02
   235 Broy./Diag. 0.40E+00    1.5     0.01007860     -5417.8407897593 -1.15E-01
   236 Broy./Diag. 0.40E+00    1.5     0.00768782     -5417.7524822956  8.83E-02
   237 Broy./Diag. 0.40E+00    1.5     0.01148271     -5417.7732143950 -2.07E-02
   238 Broy./Diag. 0.40E+00    1.5     0.01370830     -5417.7874851412 -1.43E-02
   239 Broy./Diag. 0.40E+00    1.5     0.01997582     -5417.7458263092  4.17E-02
   240 Broy./Diag. 0.40E+00    1.5     0.01781596     -5417.8322533809 -8.64E-02
   241 Broy./Diag. 0.40E+00    1.5     0.01753105     -5417.7241621956  1.08E-01
   242 Broy./Diag. 0.40E+00    1.5     0.02061489     -5417.8576512292 -1.33E-01
   243 Broy./Diag. 0.40E+00    1.5     0.01469053     -5417.6903559915  1.67E-01
   244 Broy./Diag. 0.40E+00    1.5     0.01457348     -5417.8392888375 -1.49E-01
   245 Broy./Diag. 0.40E+00    1.5     0.01687993     -5417.7348544558  1.04E-01
   246 Broy./Diag. 0.40E+00    1.5     0.01207231     -5417.8461116566 -1.11E-01
   247 Broy./Diag. 0.40E+00    1.5     0.01718171     -5417.7124088682  1.34E-01
   248 Broy./Diag. 0.40E+00    1.5     0.01715646     -5417.8182821078 -1.06E-01
   249 Broy./Diag. 0.40E+00    1.5     0.01113286     -5417.7528677883  6.54E-02
   250 Broy./Diag. 0.40E+00    1.5     0.01260588     -5417.7988431917 -4.60E-02
   251 Broy./Diag. 0.40E+00    1.5     0.01787238     -5417.7691457931  2.97E-02
   252 Broy./Diag. 0.40E+00    1.5     0.01943160     -5417.7736718657 -4.53E-03
   253 Broy./Diag. 0.40E+00    1.5     0.01874929     -5417.8024513731 -2.88E-02
   254 Broy./Diag. 0.40E+00    1.5     0.01708432     -5417.7169816963  8.55E-02
   255 Broy./Diag. 0.40E+00    1.5     0.01950545     -5417.8628595788 -1.46E-01
   256 Broy./Diag. 0.40E+00    1.5     0.01665890     -5417.7185932396  1.44E-01
   257 Broy./Diag. 0.40E+00    1.5     0.01910611     -5417.8665658711 -1.48E-01
   258 Broy./Diag. 0.40E+00    1.5     0.01825551     -5417.6604131516  2.06E-01
   259 Broy./Diag. 0.40E+00    1.5     0.01797270     -5417.8564812774 -1.96E-01
   260 Broy./Diag. 0.40E+00    1.5     0.02400578     -5417.7435883875  1.13E-01
   261 Broy./Diag. 0.40E+00    1.5     0.02164496     -5417.7821152412 -3.85E-02
   262 Broy./Diag. 0.40E+00    1.5     0.02155525     -5417.8223014869 -4.02E-02
   263 Broy./Diag. 0.40E+00    1.5     0.01773915     -5417.7072409596  1.15E-01
   264 Broy./Diag. 0.40E+00    1.5     0.02361442     -5417.8164168638 -1.09E-01
   265 Broy./Diag. 0.40E+00    1.5     0.02205660     -5417.7431400342  7.33E-02
   266 Broy./Diag. 0.40E+00    1.5     0.02764054     -5417.8500573777 -1.07E-01
   267 Broy./Diag. 0.40E+00    1.5     0.02526035     -5417.7038105908  1.46E-01
   268 Broy./Diag. 0.40E+00    1.5     0.02305533     -5417.8140415944 -1.10E-01
   269 Broy./Diag. 0.40E+00    1.5     0.02774812     -5417.7427255309  7.13E-02
   270 Broy./Diag. 0.40E+00    1.5     0.02783166     -5417.8095251200 -6.68E-02
   271 Broy./Diag. 0.40E+00    1.5     0.02201639     -5417.7646450693  4.49E-02
   272 Broy./Diag. 0.40E+00    1.5     0.03385387     -5417.8140070282 -4.94E-02
   273 Broy./Diag. 0.40E+00    1.5     0.03819851     -5417.7867542552  2.73E-02
   274 Broy./Diag. 0.40E+00    1.5     0.03402216     -5417.6273766347  1.59E-01
   275 Broy./Diag. 0.40E+00    1.5     0.03833610     -5417.9972678344 -3.70E-01
   276 Broy./Diag. 0.40E+00    1.5     0.04202861     -5417.5845830915  4.13E-01
   277 Broy./Diag. 0.40E+00    1.5     0.06008503     -5417.9369197415 -3.52E-01
   278 Broy./Diag. 0.40E+00    1.5     0.06590213     -5417.6707779663  2.66E-01
   279 Broy./Diag. 0.40E+00    1.5     0.04914248     -5417.8099539808 -1.39E-01
   280 Broy./Diag. 0.40E+00    1.5     0.06806321     -5417.7328473579  7.71E-02
   281 Broy./Diag. 0.40E+00    1.5     0.06801958     -5417.8091618333 -7.63E-02
   282 Broy./Diag. 0.40E+00    1.5     0.05226684     -5417.7865406063  2.26E-02
   283 Broy./Diag. 0.40E+00    1.5     0.08011260     -5417.7721346659  1.44E-02
   284 Broy./Diag. 0.40E+00    1.5     0.09434584     -5417.8618790860 -8.97E-02
   285 Broy./Diag. 0.40E+00    1.5     0.09890814     -5417.4370867333  4.25E-01
   286 Broy./Diag. 0.40E+00    1.5     0.11284123     -5418.4411992841 -1.00E+00
   287 Broy./Diag. 0.40E+00    1.5     0.11093625     -5417.0953071657  1.35E+00
   288 Broy./Diag. 0.40E+00    1.5     0.18011299     -5418.2364813225 -1.14E+00
   289 Broy./Diag. 0.40E+00    1.5     0.21603078     -5417.4987659772  7.38E-01
   290 Broy./Diag. 0.40E+00    1.5     0.15071955     -5417.7996210394 -3.01E-01
   291 Broy./Diag. 0.40E+00    1.5     0.20640481     -5417.6632442517  1.36E-01
   292 Broy./Diag. 0.40E+00    1.5     0.21239664     -5417.8091540541 -1.46E-01
   293 Broy./Diag. 0.40E+00    1.5     0.17301097     -5417.8242105066 -1.51E-02
   294 Broy./Diag. 0.40E+00    1.5     0.23790258     -5417.5648134805  2.59E-01
   295 Broy./Diag. 0.40E+00    1.5     0.27954799     -5418.3877885784 -8.23E-01
   296 Broy./Diag. 0.40E+00    1.5     0.26830269     -5416.7666064122  1.62E+00
   297 Broy./Diag. 0.40E+00    1.5     0.33649802     -5420.4178983332 -3.65E+00
   298 Broy./Diag. 0.40E+00    1.5     0.36146973     -5415.4850872695  4.93E+00
   299 Broy./Diag. 0.40E+00    1.5     0.60382299     -5419.0054411764 -3.52E+00
   300 Broy./Diag. 0.40E+00    1.5     0.65539946     -5417.5431250558  1.46E+00
   301 Broy./Diag. 0.40E+00    1.5     0.58697066     -5417.5341091785  9.02E-03
   302 Broy./Diag. 0.40E+00    1.5     0.65426085     -5417.1442907971  3.90E-01
   303 Broy./Diag. 0.40E+00    1.5     0.68746349     -5417.1431774141  1.11E-03
   304 Broy./Diag. 0.40E+00    1.5     0.66000093     -5419.3698350006 -2.23E+00
   305 Broy./Diag. 0.40E+00    1.5     0.74365735     -5415.9291129805  3.44E+00
   306 Broy./Diag. 0.40E+00    1.5     0.78550695     -5422.5141311547 -6.59E+00
   307 Broy./Diag. 0.40E+00    1.5     0.73886198     -5415.7278222961  6.79E+00
   308 Broy./Diag. 0.40E+00    1.5     0.81476992     -5418.4448285433 -2.72E+00
   309 Broy./Diag. 0.40E+00    1.5     0.86750483     -5412.9267567605  5.52E+00
   310 Broy./Diag. 0.40E+00    1.5     0.66850070     -5418.7392462505 -5.81E+00
   311 Broy./Diag. 0.40E+00    1.5     0.69985125     -5416.8540792946  1.89E+00
   312 Broy./Diag. 0.40E+00    1.5     0.75370546     -5419.4969657495 -2.64E+00
   313 Broy./Diag. 0.40E+00    1.5     0.81071564     -5416.7171111923  2.78E+00
   314 Broy./Diag. 0.40E+00    1.5     0.81151318     -5416.0780512320  6.39E-01
   315 Broy./Diag. 0.40E+00    1.5     0.68700918     -5418.7790684581 -2.70E+00
   316 Broy./Diag. 0.40E+00    1.5     0.75467046     -5412.7743510518  6.00E+00
   317 Broy./Diag. 0.40E+00    1.5     0.79489568     -5419.4604410649 -6.69E+00
   318 Broy./Diag. 0.40E+00    1.5     0.85928800     -5418.4007878197  1.06E+00
   319 Broy./Diag. 0.40E+00    1.5     0.90719076     -5411.0923149905  7.31E+00
   320 Broy./Diag. 0.40E+00    1.5     0.87126496     -5418.8951181592 -7.80E+00
   321 Broy./Diag. 0.40E+00    1.5     0.86856359     -5419.8724480032 -9.77E-01
   322 Broy./Diag. 0.40E+00    1.5     0.87284558     -5439.9585181608 -2.01E+01
   323 Broy./Diag. 0.40E+00    1.5     0.79487424     -5422.1232121921  1.78E+01
   324 Broy./Diag. 0.40E+00    1.5     0.83099534     -5410.0467498417  1.21E+01
   325 Broy./Diag. 0.40E+00    1.5     0.90473971     -5408.0217694528  2.02E+00
   326 Broy./Diag. 0.40E+00    1.5     0.87432669     -5425.6223577511 -1.76E+01
   327 Broy./Diag. 0.40E+00    1.5     0.85631996     -5405.9863828597  1.96E+01
   328 Broy./Diag. 0.40E+00    1.5     0.88004349     -5408.6956313753 -2.71E+00
   329 Broy./Diag. 0.40E+00    1.5     0.84664478     -5428.4242166502 -1.97E+01
   330 Broy./Diag. 0.40E+00    1.5     0.88293561     -5417.0042482926  1.14E+01
   331 Broy./Diag. 0.40E+00    1.5     0.76617172     -5421.7941848103 -4.79E+00
   332 Broy./Diag. 0.40E+00    1.5     0.83123661     -5425.6894478051 -3.90E+00
   333 Broy./Diag. 0.40E+00    1.5     0.90380414     -5415.5579676843  1.01E+01
   334 Broy./Diag. 0.40E+00    1.5     0.93247153     -5409.5917326545  5.97E+00
   335 Broy./Diag. 0.40E+00    1.5     0.92635479     -5411.5578244962 -1.97E+00
   336 Broy./Diag. 0.40E+00    1.5     0.67690771     -5416.3018994442 -4.74E+00
   337 Broy./Diag. 0.40E+00    1.5     0.87488733     -5422.0643435443 -5.76E+00
   338 Broy./Diag. 0.40E+00    1.5     0.89500354     -5420.2156513184  1.85E+00
   339 Broy./Diag. 0.40E+00    1.5     0.82919308     -5415.0395522785  5.18E+00
   340 Broy./Diag. 0.40E+00    1.5     0.89559442     -5419.9911854873 -4.95E+00
   341 Broy./Diag. 0.40E+00    1.5     0.68481914     -5411.4854579862  8.51E+00
   342 Broy./Diag. 0.40E+00    1.5     0.86278784     -5417.6008842138 -6.12E+00
   343 Broy./Diag. 0.40E+00    1.5     0.90724181     -5413.6585847402  3.94E+00
   344 Broy./Diag. 0.40E+00    1.5     0.89414087     -5419.5765705652 -5.92E+00
   345 Broy./Diag. 0.40E+00    1.5     0.85741681     -5424.2127542864 -4.64E+00
   346 Broy./Diag. 0.40E+00    1.5     0.91983790     -5429.1533949748 -4.94E+00
   347 Broy./Diag. 0.40E+00    1.5     0.93280314     -5406.3343330720  2.28E+01
   348 Broy./Diag. 0.40E+00    1.5     0.82308847     -5418.4672101480 -1.21E+01
   349 Broy./Diag. 0.40E+00    1.5     0.92693771     -5414.8717093726  3.60E+00
   350 Broy./Diag. 0.40E+00    1.5     0.92749119     -5401.2879810316  1.36E+01
   351 Broy./Diag. 0.40E+00    1.5     0.79067651     -5412.1749125486 -1.09E+01
   352 Broy./Diag. 0.40E+00    1.5     0.82392475     -5414.4929649172 -2.32E+00
   353 Broy./Diag. 0.40E+00    1.5     0.85911241     -5420.7287592719 -6.24E+00
   354 Broy./Diag. 0.40E+00    1.5     0.86690036     -5421.9001653734 -1.17E+00
   355 Broy./Diag. 0.40E+00    1.5     0.84633981     -5424.6145696275 -2.71E+00
   356 Broy./Diag. 0.40E+00    1.5     0.78546579     -5407.9221167198  1.67E+01
   357 Broy./Diag. 0.40E+00    1.5     0.91886656     -5416.1557212109 -8.23E+00
   358 Broy./Diag. 0.40E+00    1.5     0.91021019     -5425.8056174625 -9.65E+00
   359 Broy./Diag. 0.40E+00    1.5     0.94378043     -5424.1432603169  1.66E+00
   360 Broy./Diag. 0.40E+00    1.5     0.96390850     -5423.6512797637  4.92E-01
   361 Broy./Diag. 0.40E+00    1.5     0.81317378     -5415.8965706293  7.75E+00
   362 Broy./Diag. 0.40E+00    1.5     0.88409803     -5404.6196323192  1.13E+01
   363 Broy./Diag. 0.40E+00    1.5     0.71987405     -5406.2107181680 -1.59E+00
   364 Broy./Diag. 0.40E+00    1.5     0.76876964     -5433.6691730094 -2.75E+01
   365 Broy./Diag. 0.40E+00    1.5     0.92296082     -5413.8815115680  1.98E+01
   366 Broy./Diag. 0.40E+00    1.5     0.94301734     -5411.4375383942  2.44E+00
   367 Broy./Diag. 0.40E+00    1.5     0.91212244     -5418.9906047996 -7.55E+00
   368 Broy./Diag. 0.40E+00    1.5     0.94607063     -5425.7388773049 -6.75E+00
   369 Broy./Diag. 0.40E+00    1.5     0.73215630     -5416.4729835514  9.27E+00
   370 Broy./Diag. 0.40E+00    1.5     0.88637625     -5428.9640613871 -1.25E+01
   371 Broy./Diag. 0.40E+00    1.5     0.91672865     -5417.2378317500  1.17E+01
   372 Broy./Diag. 0.40E+00    1.5     0.73909194     -5421.0206261210 -3.78E+00
   373 Broy./Diag. 0.40E+00    1.5     0.83907518     -5405.6262205524  1.54E+01
   374 Broy./Diag. 0.40E+00    1.5     0.88663085     -5419.0986346889 -1.35E+01
   375 Broy./Diag. 0.40E+00    1.5     0.90524967     -5427.1581025917 -8.06E+00
   376 Broy./Diag. 0.40E+00    1.5     0.85507349     -5412.8768075523  1.43E+01
   377 Broy./Diag. 0.40E+00    1.5     0.87260007     -5416.2419628251 -3.37E+00
   378 Broy./Diag. 0.40E+00    1.5     0.75552961     -5420.3008587720 -4.06E+00
   379 Broy./Diag. 0.40E+00    1.5     0.72952739     -5428.4164497134 -8.12E+00
   380 Broy./Diag. 0.40E+00    1.5     0.65363354     -5407.3941698001  2.10E+01
