      60
 i =        1, E =     -7949.3286678398
 Pt        -3.0944749295        5.4137641092        8.0969114867
 Pt         1.5940966186        5.4134742045        8.1152464677
 Pt        -0.7342251274        1.3530914509        8.1600730341
 Pt         3.9545405234        1.3541612180        8.1597807295
 Pt         1.5881130742        2.7056447919        8.1286442021
 Pt         6.2767972054        2.7065948082        8.1251623498
 Pt         6.2723330053       -0.0008531453        8.1443618531
 Pt         1.5830899464       -0.0014677596        8.1338622358
 Pt        -0.7283220601        6.7633018067        8.1754159756
 Pt         3.9639955532        6.7655414589        8.1809178426
 Pt        -0.7231495082        4.0635573029        8.1896523299
 Pt         3.9687221778        4.0607404360        8.1927722890
 Ni         0.0343993002        5.4329537184       10.3783894564
 Ni         4.7268976839        2.6947739650       10.3765451394
 Ni         0.0356123489        0.0223548114       10.3768659732
 Ni         4.7043433669        5.4219420553       10.3811279379
 Pt        -2.3231046034        4.0512400450       10.3788979637
 Pt        -2.3166465362        6.7763468787       10.3797628882
 Ni         0.0119510696        2.7098709862       10.3785226775
 Ni         4.6873597827        0.0084739528       10.3756077929
 Pt         2.3708508320        4.0794758056       10.3836705949
 Pt         2.3915845617        1.3377978339       10.3876286956
 Pt         2.3811227534        6.7473343016       10.3844626890
 Pt         7.0825166687        1.3758638670       10.3875955254
 Pt        -3.9056758170        6.7695572886       12.5314394657
 Pt        -1.5629108931        5.4077975386       12.5305144038
 Ni        -1.5564009055        2.6976707910       12.5288443696
 Pt         0.7835913380        4.0626424716       12.5296562668
 Pt         0.7825099256        1.3542444915       12.5331404471
 Pt         0.7798162634        6.7712107258       12.5322975035
 Ni         3.1114202834       -0.0045025708       12.5283736671
 Pt         3.1269560485        2.7153507564       12.5305211719
 Ni         3.1331708810        5.4255096872       12.5295797283
 Pt         5.4739718184        4.0588252116       12.5296829211
 Pt         5.4677556670        1.3524572772       12.5313306432
 Pt         7.8160000778       -0.0035250233       12.5292063211
 Pt        -0.8211920952        1.3766150797       14.6744162794
 Pt         3.8774323105        6.7465421935       14.6768035723
 Pt         3.8650479133        1.3353417812       14.6735635767
 Pt         3.8874689519        4.0783995578       14.6777306155
 Ni         6.2536583598        2.7003444223       14.6851162954
 Pt        -0.8062499856        6.7787767350       14.6791253018
 Ni         1.5710082362        0.0064248495       14.6888954131
 Pt        -0.7971343082        4.0502677818       14.6805696219
 Ni         1.5552263129        5.4215186608       14.6835421694
 Ni         6.2405356650        0.0216661863       14.6858482933
 Ni        -3.1575550106        5.4152328490       14.6831131353
 Ni         1.5410821903        2.7016584314       14.6841135610
 Pt         2.2962132286        4.0611075411       16.8716631882
 Pt        -2.3904731277        4.0634348850       16.8728251383
 Pt         2.3006006638        6.7658118732       16.8834116055
 Pt        -2.3860622432        6.7632784629       16.8869077124
 Pt         4.6815401329       -0.0010391657       16.9253506409
 Pt        -0.0078289452       -0.0003472897       16.9161305803
 Pt        -0.0122824768        2.7066583713       16.9336964870
 Pt         4.6762266481        2.7061329332       16.9312466274
 Pt         6.9982619650        1.3534157766       16.9054380185
 Pt         2.3092147067        1.3553695378       16.9067785954
 Pt         4.6699920858        5.4141189331       16.9447574924
 Pt        -0.0189568268        5.4138929774       16.9592272821
      60
 i =        2, E =     -7949.3300084726
 Pt        -3.1021877415        5.4143886901        8.1101349552
 Pt         1.5895876794        5.4149085712        8.1185153301
 Pt        -0.7271800609        1.3538774999        8.1695345035
 Pt         3.9610479982        1.3527422722        8.1685946871
 Pt         1.5868973938        2.7057817044        8.1172552663
 Pt         6.2787857452        2.7054435788        8.1106895560
 Pt         6.2747896997       -0.0001742174        8.1180025689
 Pt         1.5894279626        0.0000214481        8.1064062625
 Pt        -0.7275747035        6.7680706039        8.1681159962
 Pt         3.9631999318        6.7677939960        8.1712790867
 Pt        -0.7263707420        4.0612680333        8.1683928816
 Pt         3.9636773256        4.0603616547        8.1707906451
 Ni         0.0355546299        5.4298424994       10.3770629016
 Ni         4.7265288469        2.6957939575       10.3764697491
 Ni         0.0403461596        0.0147510559       10.3762395034
 Ni         4.7013855556        5.4183484507       10.3835179164
 Pt        -2.3163878233        4.0472317849       10.3754602891
 Pt        -2.3140464286        6.7835746325       10.3771221670
 Ni         0.0048529589        2.7068515288       10.3833740140
 Ni         4.6927694132        0.0159319112       10.3845650331
 Pt         2.3759707958        4.0766635810       10.3783488237
 Pt         2.3812721336        1.3385176050       10.3816742356
 Pt         2.3797290743        6.7563081185       10.3813059816
 Pt         7.0732346310        1.3698899040       10.3813918041
 Pt        -3.9044498551        6.7687928562       12.5319164968
 Pt        -1.5613089324        5.4115424551       12.5304882286
 Ni        -1.5569794971        2.7042833826       12.5247354750
 Pt         0.7841520762        4.0640183638       12.5294720988
 Pt         0.7863056851        1.3562635769       12.5324749105
 Pt         0.7831133244        6.7719652600       12.5319553328
 Ni         3.1220532241       -0.0070858223       12.5254305942
 Pt         3.1282097569        2.7125577981       12.5313635841
 Ni         3.1311276491        5.4191970255       12.5255784997
 Pt         5.4740595888        4.0595680476       12.5304660618
 Pt         5.4715581673        1.3533734183       12.5301747440
 Pt         7.8180431103       -0.0013074309       12.5315070043
 Pt        -0.8107657446        1.3718648979       14.6790352896
 Pt         3.8790514153        6.7533480417       14.6798884522
 Pt         3.8728995904        1.3360796115       14.6788298515
 Pt         3.8828721530        4.0767656034       14.6808013900
 Ni         6.2488509421        2.6975780934       14.6805142528
 Pt        -0.8058944397        6.7843141156       14.6829008905
 Ni         1.5694971461        0.0090229788       14.6798683157
 Pt        -0.8050237371        4.0461956679       14.6824567974
 Ni         1.5540814040        5.4227373002       14.6814296532
 Ni         6.2378046316        0.0259555757       14.6875862438
 Ni        -3.1512115680        5.4134213192       14.6883224645
 Ni         1.5379568918        2.7136982610       14.6883330404
 Pt         2.3011841807        4.0614983831       16.8946074716
 Pt        -2.3871545794        4.0601480520       16.8948185931
 Pt         2.3005649768        6.7681689382       16.8927857304
 Pt        -2.3865775606        6.7679116852       16.8948257449
 Pt         4.6749383708       -0.0000144241       16.9509287763
 Pt        -0.0104887098       -0.0000034679       16.9439539974
 Pt        -0.0146007976        2.7059878968       16.9493352046
 Pt         4.6766318014        2.7052445097       16.9433866842
 Pt         6.9920130977        1.3544158525       16.8961966053
 Pt         2.3031368352        1.3526667966       16.8945830526
 Pt         4.6742679807        5.4145297726       16.9425087050
 Pt        -0.0123541704        5.4148505788       16.9483055186
      60
 i =        3, E =     -7949.3302950164
 Pt        -3.1022082887        5.4145408630        8.1097168624
 Pt         1.5896878184        5.4149800584        8.1131069587
 Pt        -0.7258001703        1.3532685925        8.1666953541
 Pt         3.9621071586        1.3537695563        8.1652610274
 Pt         1.5877865921        2.7076398337        8.1100871813
 Pt         6.2802053673        2.7065723456        8.1056035946
 Pt         6.2776402454       -0.0003376114        8.1076375220
 Pt         1.5919131743        0.0002526037        8.1019248351
 Pt        -0.7273519613        6.7695554604        8.1650141126
 Pt         3.9619157550        6.7694074547        8.1665585065
 Pt        -0.7282276850        4.0613623007        8.1632369862
 Pt         3.9607979625        4.0598172940        8.1647403955
 Ni         0.0356558363        5.4306602996       10.3744739532
 Ni         4.7249909481        2.6948398468       10.3744387513
 Ni         0.0354186178        0.0129792276       10.3747247709
 Ni         4.6970128152        5.4182499295       10.3822963949
 Pt        -2.3128780448        4.0464107667       10.3763076313
 Pt        -2.3127624187        6.7853712526       10.3748867593
 Ni         0.0055313224        2.7077085414       10.3827480231
 Ni         4.7006597404        0.0248036253       10.3854247222
 Pt         2.3784010107        4.0769880361       10.3786004186
 Pt         2.3760016879        1.3392224730       10.3771480980
 Pt         2.3780099146        6.7572495860       10.3784523230
 Pt         7.0683588176        1.3695551764       10.3773290943
 Pt        -3.9037403608        6.7691760851       12.5315695674
 Pt        -1.5599812538        5.4132133775       12.5299930948
 Ni        -1.5512950565        2.7004925601       12.5178400305
 Pt         0.7861578628        4.0653432887       12.5298690385
 Pt         0.7869573938        1.3560760887       12.5321842163
 Pt         0.7840526196        6.7732612438       12.5319290941
 Ni         3.1169567299       -0.0086470035       12.5190415497
 Pt         3.1286196261        2.7104809198       12.5300934038
 Ni         3.1356083038        5.4232760685       12.5196948833
 Pt         5.4757004029        4.0599983944       12.5303372472
 Pt         5.4722563902        1.3549089555       12.5315186041
 Pt         7.8194375687        0.0011611129       12.5318647201
 Pt        -0.8050828543        1.3712384724       14.6828989142
 Pt         3.8802041147        6.7552700672       14.6822776848
 Pt         3.8789569978        1.3371725481       14.6791755405
 Pt         3.8795802620        4.0783006952       14.6807331817
 Ni         6.2480964576        2.7003297301       14.6799257957
 Pt        -0.8059145727        6.7864661983       14.6821764059
 Ni         1.5690621889        0.0100026234       14.6806057950
 Pt        -0.8092981477        4.0442974855       14.6814476925
 Ni         1.5542549490        5.4209346917       14.6802887761
 Ni         6.2345727942        0.0275457686       14.6894503432
 Ni        -3.1501356640        5.4155711058       14.6902190251
 Ni         1.5381008158        2.7107721286       14.6904860769
 Pt         2.3033014528        4.0611779797       16.9005405382
 Pt        -2.3860591718        4.0603583703       16.9008065581
 Pt         2.3020499132        6.7696668009       16.8965106293
 Pt        -2.3864328288        6.7682459715       16.8985437633
 Pt         4.6719857404        0.0003188273       16.9562209610
 Pt        -0.0136335823       -0.0003912334       16.9528522986
 Pt        -0.0158860863        2.7073774136       16.9547243989
 Pt         4.6751738560        2.7069498372       16.9506551966
 Pt         6.9911295811        1.3539820886       16.8987855187
 Pt         2.3012085128        1.3539637409       16.8964808927
 Pt         4.6744297279        5.4144543166       16.9479218634
 Pt        -0.0127417476        5.4146457472       16.9502997803
      60
 i =        4, E =     -7949.3304261863
 Pt        -3.1010745217        5.4149339039        8.1066143743
 Pt         1.5904089430        5.4151553056        8.1059793028
 Pt        -0.7258212579        1.3538234024        8.1608173110
 Pt         3.9620458522        1.3552647513        8.1589790686
 Pt         1.5884513435        2.7094724395        8.1037219266
 Pt         6.2805566328        2.7086701471        8.1026623994
 Pt         6.2797348087        0.0001459264        8.0999940400
 Pt         1.5924272216        0.0002514125        8.1012352108
 Pt        -0.7266934997        6.7699454934        8.1623913616
 Pt         3.9619265397        6.7698091606        8.1623791822
 Pt        -0.7280289386        4.0626614944        8.1613930492
 Pt         3.9608696752        4.0603554357        8.1616800956
 Ni         0.0365313760        5.4302235814       10.3726911884
 Ni         4.7232877093        2.6936364867       10.3724038062
 Ni         0.0338953139        0.0116075980       10.3728194286
 Ni         4.6932438779        5.4167164724       10.3817824251
 Pt        -2.3106778355        4.0473953777       10.3739631871
 Pt        -2.3116947043        6.7849031990       10.3725005634
 Ni         0.0067144215        2.7079757054       10.3813684485
 Ni         4.7092351488        0.0295347190       10.3800383988
 Pt         2.3788897260        4.0777981560       10.3748740342
 Pt         2.3730629511        1.3413781320       10.3720816047
 Pt         2.3770978656        6.7580550332       10.3746226180
 Pt         7.0654541929        1.3696774697       10.3728374157
 Pt        -3.9032127374        6.7697393026       12.5311978859
 Pt        -1.5587031844        5.4166329156       12.5287842448
 Ni        -1.5483133853        2.7058335037       12.5067995372
 Pt         0.7879058459        4.0659541308       12.5308899009
 Pt         0.7872260259        1.3561933142       12.5318050472
 Pt         0.7861897826        6.7743782452       12.5315996114
 Ni         3.1203737756       -0.0079092504       12.5084856848
 Pt         3.1295406769        2.7075793829       12.5286357652
 Ni         3.1366384966        5.4193448467       12.5092000160
 Pt         5.4765562610        4.0611230638       12.5307172842
 Pt         5.4751014195        1.3572331559       12.5313349179
 Pt         7.8197401478        0.0034792763       12.5310391729
 Pt        -0.8017476244        1.3720894804       14.6854163129
 Pt         3.8809819575        6.7550405715       14.6833318480
 Pt         3.8823254492        1.3392972424       14.6816359360
 Pt         3.8769692887        4.0804340387       14.6810988035
 Ni         6.2458911797        2.7017559224       14.6815249329
 Pt        -0.8068752426        6.7870648045       14.6823587858
 Ni         1.5704778475        0.0110973814       14.6808144654
 Pt        -0.8121594239        4.0439525468       14.6812418661
 Ni         1.5534575499        5.4217974364       14.6811247443
 Ni         6.2294896393        0.0296855416       14.6907647040
 Ni        -3.1504846723        5.4164018069       14.6911560347
 Ni         1.5386866580        2.7071380589       14.6917544088
 Pt         2.3029174603        4.0615635850       16.9022604078
 Pt        -2.3865235898        4.0613600128       16.9027595643
 Pt         2.3016622836        6.7705724356       16.8992596511
 Pt        -2.3868410567        6.7684714940       16.9008198444
 Pt         4.6707248882        0.0005246915       16.9565508672
 Pt        -0.0153020877       -0.0003493841       16.9588576955
 Pt        -0.0167424298        2.7092150907       16.9576661887
 Pt         4.6735066766        2.7088997174       16.9556209212
 Pt         6.9908611177        1.3542545380       16.9039874065
 Pt         2.3009497414        1.3552462462       16.9007479479
 Pt         4.6729542801        5.4146899524       16.9541992757
 Pt        -0.0145588307        5.4148525546       16.9534883892
