 DBCSR| CPU Multiplication driver                                           XSMM (U)
 DBCSR| Multrec recursion limit                                              512 (U)
 DBCSR| Multiplication stack size                                           1000 (D)
 DBCSR| Maximum elements for images                                    UNLIMITED (U)
 DBCSR| Multiplicative factor virtual images                                   1 (U)
 DBCSR| Use multiplication densification                                       T (D)
 DBCSR| Multiplication size stacks                                             3 (U)
 DBCSR| Use memory pool for CPU allocation                                     F (U)
 DBCSR| Number of 3D layers                                               SINGLE (U)
 DBCSR| Use MPI memory allocation                                              F (U)
 DBCSR| Use RMA algorithm                                                      F (U)
 DBCSR| Use Communication thread                                               T (U)
 DBCSR| Communication thread load                                             87 (D)
 DBCSR| MPI: My process id                                                     0
 DBCSR| MPI: Number of processes                                             128
 DBCSR| OMP: Current number of threads                                         1
 DBCSR| OMP: Max number of threads                                             1
 DBCSR| Split modifier for TAS multiplication algorithm                  1.0E+00 (U)


  **** **** ******  **  PROGRAM STARTED AT               2023-02-14 14:13:41.363
 ***** ** ***  *** **   PROGRAM STARTED ON                             nid004129
 **    ****   ******    PROGRAM STARTED BY                                cahart
 ***** **    ** ** **   PROGRAM PROCESS ID                                 49900
  **** **  *******  **  PROGRAM STARTED IN /mnt/lustre/a2fs-work2/work/e05/e05/c
                                           ahart/postdoc/masters/ni/archer2/slab
                                           /optimise/alpha-beta/scf_5e-4_mos-100
                                           0_temp-2000_spin-0.7-0.5_periodic-xyz
                                           /search/1.0E-3_8.0E-02

 CP2K| version string:                 CP2K version 2023.1 (Development Version)
 CP2K| source code revision number:                                  git:964cd58
 CP2K| cp2kflags: omp libint fftw3 libxc elpa parallel scalapack xsmm plumed2 mk
 CP2K|            l
 CP2K| is freely available from                            https://www.cp2k.org/
 CP2K| Program compiled at                          Mon 13 Feb 17:05:14 GMT 2023
 CP2K| Program compiled on                                                  ln01
 CP2K| Program compiled for                                              ARCHER2
 CP2K| Data directory path    /work/e05/e05/cahart/cp2k/cp2k-2023.1/cp2k-2023.1-
 CP2K| Input file name                                                  cp2k.inp

 GLOBAL| Force Environment number                                              1
 GLOBAL| Basis set file name                                        BASIS_MOLOPT
 GLOBAL| Potential file name                                      GTH_POTENTIALS
 GLOBAL| MM Potential file name                                     MM_POTENTIAL
 GLOBAL| Coordinate file name                                      __STD_INPUT__
 GLOBAL| Method name                                                        CP2K
 GLOBAL| Project name                                                    Ni_bulk
 GLOBAL| Run type                                                         ENERGY
 GLOBAL| FFT library                                                       FFTW3
 GLOBAL| Diagonalization library                                            ELPA
 GLOBAL| DGEMM library                                                      BLAS
 GLOBAL| Minimum number of eigenvectors for ELPA usage                        16
 GLOBAL| Orthonormality check for eigenvectors                          DISABLED
 GLOBAL| Matrix multiplication library                                 ScaLAPACK
 GLOBAL| All-to-all communication in single precision                          F
 GLOBAL| FFTs using library dependent lengths                                  F
 GLOBAL| Grid backend                                                       AUTO
 GLOBAL| Global print level                                               MEDIUM
 GLOBAL| MPI I/O enabled                                                       T
 GLOBAL| Total number of message passing processes                           128
 GLOBAL| Number of threads for this process                                    1
 GLOBAL| This output is from process                                           0
 GLOBAL| Stack size for threads created by OpenMP (OMP_STACKSIZE)        default
 GLOBAL| CPU model name                          AMD EPYC 7742 64-Core Processor
 GLOBAL| CPUID                                                              1002

 MEMORY| system memory details [Kb]
 MEMORY|                        rank 0           min           max       average
 MEMORY| MemTotal            263528084     263528084     263528084     263528084
 MEMORY| MemFree             239275620     239275620     239275620     239275620
 MEMORY| Buffers                 29180         29180         29180         29180
 MEMORY| Cached                 623472        623472        623472        623472
 MEMORY| Slab                  1519508       1519508       1519508       1519508
 MEMORY| SReclaimable           103508        103508        103508        103508
 MEMORY| MemLikelyFree       240031780     240031780     240031780     240031780


 *** Fundamental physical constants (SI units) ***

 *** Literature: B. J. Mohr and B. N. Taylor,
 ***             CODATA recommended values of the fundamental physical
 ***             constants: 2006, Web Version 5.1
 ***             http://physics.nist.gov/constants

 Speed of light in vacuum [m/s]                             2.99792458000000E+08
 Magnetic constant or permeability of vacuum [N/A**2]       1.25663706143592E-06
 Electric constant or permittivity of vacuum [F/m]          8.85418781762039E-12
 Planck constant (h) [J*s]                                  6.62606896000000E-34
 Planck constant (h-bar) [J*s]                              1.05457162825177E-34
 Elementary charge [C]                                      1.60217648700000E-19
 Electron mass [kg]                                         9.10938215000000E-31
 Electron g factor [ ]                                     -2.00231930436220E+00
 Proton mass [kg]                                           1.67262163700000E-27
 Fine-structure constant                                    7.29735253760000E-03
 Rydberg constant [1/m]                                     1.09737315685270E+07
 Avogadro constant [1/mol]                                  6.02214179000000E+23
 Boltzmann constant [J/K]                                   1.38065040000000E-23
 Atomic mass unit [kg]                                      1.66053878200000E-27
 Bohr radius [m]                                            5.29177208590000E-11

 *** Conversion factors ***

 [u] -> [a.u.]                                              1.82288848426455E+03
 [Angstrom] -> [Bohr] = [a.u.]                              1.88972613288564E+00
 [a.u.] = [Bohr] -> [Angstrom]                              5.29177208590000E-01
 [a.u.] -> [s]                                              2.41888432650478E-17
 [a.u.] -> [fs]                                             2.41888432650478E-02
 [a.u.] -> [J]                                              4.35974393937059E-18
 [a.u.] -> [N]                                              8.23872205491840E-08
 [a.u.] -> [K]                                              3.15774647902944E+05
 [a.u.] -> [kJ/mol]                                         2.62549961709828E+03
 [a.u.] -> [kcal/mol]                                       6.27509468713739E+02
 [a.u.] -> [Pa]                                             2.94210107994716E+13
 [a.u.] -> [bar]                                            2.94210107994716E+08
 [a.u.] -> [atm]                                            2.90362800883016E+08
 [a.u.] -> [eV]                                             2.72113838565563E+01
 [a.u.] -> [Hz]                                             6.57968392072181E+15
 [a.u.] -> [1/cm] (wave numbers)                            2.19474631370540E+05
 [a.u./Bohr**2] -> [1/cm]                                   5.14048714338585E+03
 

 CELL_TOP| Volume [angstrom^3]:                                       983.249569
 CELL_TOP| Vector a [angstrom     7.012     0.000     0.000   |a| =     7.011596
 CELL_TOP| Vector b [angstrom     0.000     7.012     0.000   |b| =     7.011596
 CELL_TOP| Vector c [angstrom     0.000     0.000    20.000   |c| =    20.000000
 CELL_TOP| Angle (b,c), alpha [degree]:                                90.000000
 CELL_TOP| Angle (a,c), beta  [degree]:                                90.000000
 CELL_TOP| Angle (a,b), gamma [degree]:                                90.000000
 CELL_TOP| Numerically orthorhombic:                                         YES
 CELL_TOP| Periodicity                                                       XYZ

 GENERATE|  Preliminary Number of Bonds generated:                             0
 GENERATE|  Achieved consistency in connectivity generation.

 CELL| Volume [angstrom^3]:                                           983.249569
 CELL| Vector a [angstrom]:       7.012     0.000     0.000   |a| =     7.011596
 CELL| Vector b [angstrom]:       0.000     7.012     0.000   |b| =     7.011596
 CELL| Vector c [angstrom]:       0.000     0.000    20.000   |c| =    20.000000
 CELL| Angle (b,c), alpha [degree]:                                    90.000000
 CELL| Angle (a,c), beta  [degree]:                                    90.000000
 CELL| Angle (a,b), gamma [degree]:                                    90.000000
 CELL| Numerically orthorhombic:                                             YES
 CELL| Periodicity                                                           XYZ

 CELL_REF| Volume [angstrom^3]:                                       983.249569
 CELL_REF| Vector a [angstrom     7.012     0.000     0.000   |a| =     7.011596
 CELL_REF| Vector b [angstrom     0.000     7.012     0.000   |b| =     7.011596
 CELL_REF| Vector c [angstrom     0.000     0.000    20.000   |c| =    20.000000
 CELL_REF| Angle (b,c), alpha [degree]:                                90.000000
 CELL_REF| Angle (a,c), beta  [degree]:                                90.000000
 CELL_REF| Angle (a,b), gamma [degree]:                                90.000000
 CELL_REF| Numerically orthorhombic:                                         YES
 CELL_REF| Periodicity                                                       XYZ

 *** WARNING in cryssym.F:165 :: Symmetry library SPGLIB not available ***


 *******************************************************************************
                                    Kpoints
 *******************************************************************************
 BRILLOUIN| K-point scheme                                        Monkhorst-Pack
 BRILLOUIN| K-Point grid                                             4    4    1
 BRILLOUIN| Accuracy in Symmetry determination                      0.100000E-05
 BRILLOUIN| K-Point point group symmetrization                               OFF
 BRILLOUIN| Wavefunction type                                            COMPLEX
 BRILLOUIN| List of Kpoints [2 Pi/Bohr]                                        8
 BRILLOUIN| Number           Weight            X              Y              Z
 BRILLOUIN|     1           0.12500       -0.37500       -0.37500        0.00000
 BRILLOUIN|     2           0.12500       -0.37500       -0.12500        0.00000
 BRILLOUIN|     3           0.12500       -0.37500        0.12500        0.00000
 BRILLOUIN|     4           0.12500       -0.37500        0.37500        0.00000
 BRILLOUIN|     5           0.12500       -0.12500       -0.37500        0.00000
 BRILLOUIN|     6           0.12500       -0.12500       -0.12500        0.00000
 BRILLOUIN|     7           0.12500       -0.12500        0.12500        0.00000
 BRILLOUIN|     8           0.12500       -0.12500        0.37500        0.00000
 *******************************************************************************

 *******************************************************************************
 *******************************************************************************
 **                                                                           **
 **     #####                         ##              ##                      **
 **    ##   ##            ##          ##              ##                      **
 **   ##     ##                       ##            ######                    **
 **   ##     ##  ##   ##  ##   #####  ##  ##   ####   ##    #####    #####    **
 **   ##     ##  ##   ##  ##  ##      ## ##   ##      ##   ##   ##  ##   ##   **
 **   ##  ## ##  ##   ##  ##  ##      ####     ###    ##   ######   ######    **
 **    ##  ###   ##   ##  ##  ##      ## ##      ##   ##   ##       ##        **
 **     #######   #####   ##   #####  ##  ##  ####    ##    #####   ##        **
 **           ##                                                    ##        **
 **                                                                           **
 **                                                ... make the atoms dance   **
 **                                                                           **
 **            Copyright (C) by CP2K developers group (2000-2023)             **
 **                      J. Chem. Phys. 152, 194103 (2020)                    **
 **                                                                           **
 *******************************************************************************

 *** WARNING in qs_environment.F:1456 :: Number of electrons will be ***
 *** overwritten by NELEC_ALPHA and NELEC_BETA, multiplicity will be ***
 *** ignored.                                                        ***

 Number of electrons should be                                               576
 Sum of NELEC_ALPHA and NELEC_BETA is                                    576.000

 *** WARNING in qs_environment.F:1488 :: NELEC_ALPHA is not an integer, ***
 *** many features will not be supported.                               ***


 *** WARNING in qs_environment.F:1500 :: NELEC_BETA is not an integer, ***
 *** many features will not be supported.                              ***


 *** WARNING in qs_environment.F:1532 :: More ADDED_MOs requested for beta ***
 *** spin than available.                                                  ***


 *** WARNING in qs_environment.F:1548 :: More added MOs requested than     ***
 *** available. The full set of unoccupied MOs will be used. Use           ***
 *** 'ADDED_MOS -1' to always use all available MOs and to get rid of this ***
 *** warning.                                                              ***


 DFT| Spin unrestricted (spin-polarized) Kohn-Sham calculation               UKS
 DFT| Multiplicity                                                             1
 DFT| Number of spin states                                                    2
 DFT| Charge                                                                   0
 DFT| Self-interaction correction (SIC)                                       NO
 DFT| Cutoffs: density                                              1.000000E-10
 DFT|          gradient                                             1.000000E-10
 DFT|          tau                                                  1.000000E-10
 DFT|          cutoff_smoothing_range                               0.000000E+00
 DFT| XC density smoothing                                                  NONE
 DFT| XC derivatives                                                          PW

 FUNCTIONAL| PBE:
 FUNCTIONAL| J.P.Perdew, K.Burke, M.Ernzerhof, Phys. Rev. Letter, vol. 77, n 18,
 FUNCTIONAL|  pp. 3865-3868, (1996){spin polarized}                             

 vdW POTENTIAL|                                                   Pair Potential
 vdW POTENTIAL|          DFT-D3 (Version 3.1)
 vdW POTENTIAL|          Potential Form: S. Grimme et al, JCP 132: 154104 (2010)
 vdW POTENTIAL|          Zero Damping
 vdW POTENTIAL|          Cutoff Radius [Bohr]:                             20.00
 vdW POTENTIAL|          s6 Scaling Factor:                               1.0000
 vdW POTENTIAL|          sr6 Scaling Factor:                              1.2170
 vdW POTENTIAL|          s8 Scaling Factor:                               0.7220
 vdW POTENTIAL|          Cutoff for CN calculation:                   0.1000E-05

 QS| Method:                                                                 GPW
 QS| Density plane wave grid type                        NON-SPHERICAL FULLSPACE
 QS| Number of grid levels:                                                    5
 QS| Density cutoff [a.u.]:                                                300.0
 QS| Multi grid cutoff [a.u.]: 1) grid level                               300.0
 QS|                           2) grid level                               100.0
 QS|                           3) grid level                                33.3
 QS|                           4) grid level                                11.1
 QS|                           5) grid level                                 3.7
 QS| Grid level progression factor:                                          3.0
 QS| Relative density cutoff [a.u.]:                                        30.0
 QS| Interaction thresholds: eps_pgf_orb:                                1.0E-06
 QS|                         eps_filter_matrix:                          0.0E+00
 QS|                         eps_core_charge:                            1.0E-14
 QS|                         eps_rho_gspace:                             1.0E-12
 QS|                         eps_rho_rspace:                             1.0E-12
 QS|                         eps_gvg_rspace:                             1.0E-06
 QS|                         eps_ppl:                                    1.0E-02
 QS|                         eps_ppnl:                                   1.0E-08


 ATOMIC KIND INFORMATION

  1. Atomic kind: Ni_i                                  Number of atoms:      16

     Orbital Basis Set                                        DZVP-MOLOPT-SR-GTH

       Number of orbital shell sets:                                           1
       Number of orbital shells:                                               8
       Number of primitive Cartesian functions:                                6
       Number of Cartesian basis functions:                                   31
       Number of spherical basis functions:                                   26
       Norm type:                                                              2

       Normalised Cartesian orbitals:

                        Set   Shell   Orbital            Exponent    Coefficient

                          1       1    2s               10.077428      -0.684558
                                                         5.847736      -0.844524
                                                         2.494033       1.088856
                                                         0.988355       0.395503
                                                         0.344978       0.010224
                                                         0.099466      -0.003250

                          1       2    3s               10.077428       0.096747
                                                         5.847736       0.162504
                                                         2.494033      -0.297192
                                                         0.988355      -0.319752
                                                         0.344978       0.088318
                                                         0.099466       0.118587

                          1       3    4s               10.077428       0.036437
                                                         5.847736      -0.381480
                                                         2.494033       0.003759
                                                         0.988355      -1.048256
                                                         0.344978       0.855825
                                                         0.099466      -0.176350

                          1       4    3px              10.077428      -3.133913
                                                         5.847736       3.027656
                                                         2.494033       2.353227
                                                         0.988355       0.554184
                                                         0.344978       0.019462
                                                         0.099466      -0.000291
                          1       4    3py              10.077428      -3.133913
                                                         5.847736       3.027656
                                                         2.494033       2.353227
                                                         0.988355       0.554184
                                                         0.344978       0.019462
                                                         0.099466      -0.000291
                          1       4    3pz              10.077428      -3.133913
                                                         5.847736       3.027656
                                                         2.494033       2.353227
                                                         0.988355       0.554184
                                                         0.344978       0.019462
                                                         0.099466      -0.000291

                          1       5    4px              10.077428      -0.112729
                                                         5.847736      -0.114008
                                                         2.494033      -0.347303
                                                         0.988355      -0.110323
                                                         0.344978       0.154096
                                                         0.099466       0.058386
                          1       5    4py              10.077428      -0.112729
                                                         5.847736      -0.114008
                                                         2.494033      -0.347303
                                                         0.988355      -0.110323
                                                         0.344978       0.154096
                                                         0.099466       0.058386
                          1       5    4pz              10.077428      -0.112729
                                                         5.847736      -0.114008
                                                         2.494033      -0.347303
                                                         0.988355      -0.110323
                                                         0.344978       0.154096
                                                         0.099466       0.058386

                          1       6    4dx2             10.077428       8.232726
                                                         5.847736       9.105758
                                                         2.494033       2.849835
                                                         0.988355       0.554319
                                                         0.344978       0.067245
                                                         0.099466       0.001940
                          1       6    4dxy             10.077428      14.259500
                                                         5.847736      15.771636
                                                         2.494033       4.936060
                                                         0.988355       0.960109
                                                         0.344978       0.116472
                                                         0.099466       0.003360
                          1       6    4dxz             10.077428      14.259500
                                                         5.847736      15.771636
                                                         2.494033       4.936060
                                                         0.988355       0.960109
                                                         0.344978       0.116472
                                                         0.099466       0.003360
                          1       6    4dy2             10.077428       8.232726
                                                         5.847736       9.105758
                                                         2.494033       2.849835
                                                         0.988355       0.554319
                                                         0.344978       0.067245
                                                         0.099466       0.001940
                          1       6    4dyz             10.077428      14.259500
                                                         5.847736      15.771636
                                                         2.494033       4.936060
                                                         0.988355       0.960109
                                                         0.344978       0.116472
                                                         0.099466       0.003360
                          1       6    4dz2             10.077428       8.232726
                                                         5.847736       9.105758
                                                         2.494033       2.849835
                                                         0.988355       0.554319
                                                         0.344978       0.067245
                                                         0.099466       0.001940

                          1       7    5dx2             10.077428      -2.715373
                                                         5.847736      -4.020640
                                                         2.494033      -1.397569
                                                         0.988355      -0.076143
                                                         0.344978       0.033435
                                                         0.099466       0.026032
                          1       7    5dxy             10.077428      -4.703164
                                                         5.847736      -6.963952
                                                         2.494033      -2.420661
                                                         0.988355      -0.131883
                                                         0.344978       0.057911
                                                         0.099466       0.045088
                          1       7    5dxz             10.077428      -4.703164
                                                         5.847736      -6.963952
                                                         2.494033      -2.420661
                                                         0.988355      -0.131883
                                                         0.344978       0.057911
                                                         0.099466       0.045088
                          1       7    5dy2             10.077428      -2.715373
                                                         5.847736      -4.020640
                                                         2.494033      -1.397569
                                                         0.988355      -0.076143
                                                         0.344978       0.033435
                                                         0.099466       0.026032
                          1       7    5dyz             10.077428      -4.703164
                                                         5.847736      -6.963952
                                                         2.494033      -2.420661
                                                         0.988355      -0.131883
                                                         0.344978       0.057911
                                                         0.099466       0.045088
                          1       7    5dz2             10.077428      -2.715373
                                                         5.847736      -4.020640
                                                         2.494033      -1.397569
                                                         0.988355      -0.076143
                                                         0.344978       0.033435
                                                         0.099466       0.026032

                          1       8    5fx3             10.077428      -0.467694
                                                         5.847736       0.618100
                                                         2.494033       0.066069
                                                         0.988355       0.262898
                                                         0.344978       0.004720
                                                         0.099466       0.007748
                          1       8    5fx2y            10.077428      -1.045795
                                                         5.847736       1.382114
                                                         2.494033       0.147734
                                                         0.988355       0.587859
                                                         0.344978       0.010555
                                                         0.099466       0.017325
                          1       8    5fx2z            10.077428      -1.045795
                                                         5.847736       1.382114
                                                         2.494033       0.147734
                                                         0.988355       0.587859
                                                         0.344978       0.010555
                                                         0.099466       0.017325
                          1       8    5fxy2            10.077428      -1.045795
                                                         5.847736       1.382114
                                                         2.494033       0.147734
                                                         0.988355       0.587859
                                                         0.344978       0.010555
                                                         0.099466       0.017325
                          1       8    5fxyz            10.077428      -1.811371
                                                         5.847736       2.393892
                                                         2.494033       0.255883
                                                         0.988355       1.018201
                                                         0.344978       0.018282
                                                         0.099466       0.030008
                          1       8    5fxz2            10.077428      -1.045795
                                                         5.847736       1.382114
                                                         2.494033       0.147734
                                                         0.988355       0.587859
                                                         0.344978       0.010555
                                                         0.099466       0.017325
                          1       8    5fy3             10.077428      -0.467694
                                                         5.847736       0.618100
                                                         2.494033       0.066069
                                                         0.988355       0.262898
                                                         0.344978       0.004720
                                                         0.099466       0.007748
                          1       8    5fy2z            10.077428      -1.045795
                                                         5.847736       1.382114
                                                         2.494033       0.147734
                                                         0.988355       0.587859
                                                         0.344978       0.010555
                                                         0.099466       0.017325
                          1       8    5fyz2            10.077428      -1.045795
                                                         5.847736       1.382114
                                                         2.494033       0.147734
                                                         0.988355       0.587859
                                                         0.344978       0.010555
                                                         0.099466       0.017325
                          1       8    5fz3             10.077428      -0.467694
                                                         5.847736       0.618100
                                                         2.494033       0.066069
                                                         0.988355       0.262898
                                                         0.344978       0.004720
                                                         0.099466       0.007748

       Atomic covalent radius [Angstrom]:                                  1.150

       Atomic van der Waals radius [Angstrom]:                             1.630

     GTH Potential information for                                   GTH-PBE-q18

       Description:                       Goedecker-Teter-Hutter pseudopotential
                                           Goedecker et al., PRB 54, 1703 (1996)
                                          Hartwigsen et al., PRB 58, 3641 (1998)
                                                      Krack, TCA 114, 145 (2005)

       Gaussian exponent of the core charge distribution:               4.081633
       Electronic configuration (s p d ...):                           4   6   8

       Parameters of the local part of the GTH pseudopotential:

                          rloc        C1          C2          C3          C4
                        0.350000    2.102166    0.648484

       Parameters of the non-local part of the GTH pseudopotential:

                   l      r(l)      h(i,j,l)

                   0    0.261295    0.622658    9.970227
                                    9.970227  -12.871507
                   1    0.224253  -11.142708   12.429566
                                   12.429566  -14.706861
                   2    0.215348  -12.628146

  2. Atomic kind: Ni_b                                  Number of atoms:      16

     Orbital Basis Set                                        DZVP-MOLOPT-SR-GTH

       Number of orbital shell sets:                                           1
       Number of orbital shells:                                               8
       Number of primitive Cartesian functions:                                6
       Number of Cartesian basis functions:                                   31
       Number of spherical basis functions:                                   26
       Norm type:                                                              2

       Normalised Cartesian orbitals:

                        Set   Shell   Orbital            Exponent    Coefficient

                          1       1    2s               10.077428      -0.684558
                                                         5.847736      -0.844524
                                                         2.494033       1.088856
                                                         0.988355       0.395503
                                                         0.344978       0.010224
                                                         0.099466      -0.003250

                          1       2    3s               10.077428       0.096747
                                                         5.847736       0.162504
                                                         2.494033      -0.297192
                                                         0.988355      -0.319752
                                                         0.344978       0.088318
                                                         0.099466       0.118587

                          1       3    4s               10.077428       0.036437
                                                         5.847736      -0.381480
                                                         2.494033       0.003759
                                                         0.988355      -1.048256
                                                         0.344978       0.855825
                                                         0.099466      -0.176350

                          1       4    3px              10.077428      -3.133913
                                                         5.847736       3.027656
                                                         2.494033       2.353227
                                                         0.988355       0.554184
                                                         0.344978       0.019462
                                                         0.099466      -0.000291
                          1       4    3py              10.077428      -3.133913
                                                         5.847736       3.027656
                                                         2.494033       2.353227
                                                         0.988355       0.554184
                                                         0.344978       0.019462
                                                         0.099466      -0.000291
                          1       4    3pz              10.077428      -3.133913
                                                         5.847736       3.027656
                                                         2.494033       2.353227
                                                         0.988355       0.554184
                                                         0.344978       0.019462
                                                         0.099466      -0.000291

                          1       5    4px              10.077428      -0.112729
                                                         5.847736      -0.114008
                                                         2.494033      -0.347303
                                                         0.988355      -0.110323
                                                         0.344978       0.154096
                                                         0.099466       0.058386
                          1       5    4py              10.077428      -0.112729
                                                         5.847736      -0.114008
                                                         2.494033      -0.347303
                                                         0.988355      -0.110323
                                                         0.344978       0.154096
                                                         0.099466       0.058386
                          1       5    4pz              10.077428      -0.112729
                                                         5.847736      -0.114008
                                                         2.494033      -0.347303
                                                         0.988355      -0.110323
                                                         0.344978       0.154096
                                                         0.099466       0.058386

                          1       6    4dx2             10.077428       8.232726
                                                         5.847736       9.105758
                                                         2.494033       2.849835
                                                         0.988355       0.554319
                                                         0.344978       0.067245
                                                         0.099466       0.001940
                          1       6    4dxy             10.077428      14.259500
                                                         5.847736      15.771636
                                                         2.494033       4.936060
                                                         0.988355       0.960109
                                                         0.344978       0.116472
                                                         0.099466       0.003360
                          1       6    4dxz             10.077428      14.259500
                                                         5.847736      15.771636
                                                         2.494033       4.936060
                                                         0.988355       0.960109
                                                         0.344978       0.116472
                                                         0.099466       0.003360
                          1       6    4dy2             10.077428       8.232726
                                                         5.847736       9.105758
                                                         2.494033       2.849835
                                                         0.988355       0.554319
                                                         0.344978       0.067245
                                                         0.099466       0.001940
                          1       6    4dyz             10.077428      14.259500
                                                         5.847736      15.771636
                                                         2.494033       4.936060
                                                         0.988355       0.960109
                                                         0.344978       0.116472
                                                         0.099466       0.003360
                          1       6    4dz2             10.077428       8.232726
                                                         5.847736       9.105758
                                                         2.494033       2.849835
                                                         0.988355       0.554319
                                                         0.344978       0.067245
                                                         0.099466       0.001940

                          1       7    5dx2             10.077428      -2.715373
                                                         5.847736      -4.020640
                                                         2.494033      -1.397569
                                                         0.988355      -0.076143
                                                         0.344978       0.033435
                                                         0.099466       0.026032
                          1       7    5dxy             10.077428      -4.703164
                                                         5.847736      -6.963952
                                                         2.494033      -2.420661
                                                         0.988355      -0.131883
                                                         0.344978       0.057911
                                                         0.099466       0.045088
                          1       7    5dxz             10.077428      -4.703164
                                                         5.847736      -6.963952
                                                         2.494033      -2.420661
                                                         0.988355      -0.131883
                                                         0.344978       0.057911
                                                         0.099466       0.045088
                          1       7    5dy2             10.077428      -2.715373
                                                         5.847736      -4.020640
                                                         2.494033      -1.397569
                                                         0.988355      -0.076143
                                                         0.344978       0.033435
                                                         0.099466       0.026032
                          1       7    5dyz             10.077428      -4.703164
                                                         5.847736      -6.963952
                                                         2.494033      -2.420661
                                                         0.988355      -0.131883
                                                         0.344978       0.057911
                                                         0.099466       0.045088
                          1       7    5dz2             10.077428      -2.715373
                                                         5.847736      -4.020640
                                                         2.494033      -1.397569
                                                         0.988355      -0.076143
                                                         0.344978       0.033435
                                                         0.099466       0.026032

                          1       8    5fx3             10.077428      -0.467694
                                                         5.847736       0.618100
                                                         2.494033       0.066069
                                                         0.988355       0.262898
                                                         0.344978       0.004720
                                                         0.099466       0.007748
                          1       8    5fx2y            10.077428      -1.045795
                                                         5.847736       1.382114
                                                         2.494033       0.147734
                                                         0.988355       0.587859
                                                         0.344978       0.010555
                                                         0.099466       0.017325
                          1       8    5fx2z            10.077428      -1.045795
                                                         5.847736       1.382114
                                                         2.494033       0.147734
                                                         0.988355       0.587859
                                                         0.344978       0.010555
                                                         0.099466       0.017325
                          1       8    5fxy2            10.077428      -1.045795
                                                         5.847736       1.382114
                                                         2.494033       0.147734
                                                         0.988355       0.587859
                                                         0.344978       0.010555
                                                         0.099466       0.017325
                          1       8    5fxyz            10.077428      -1.811371
                                                         5.847736       2.393892
                                                         2.494033       0.255883
                                                         0.988355       1.018201
                                                         0.344978       0.018282
                                                         0.099466       0.030008
                          1       8    5fxz2            10.077428      -1.045795
                                                         5.847736       1.382114
                                                         2.494033       0.147734
                                                         0.988355       0.587859
                                                         0.344978       0.010555
                                                         0.099466       0.017325
                          1       8    5fy3             10.077428      -0.467694
                                                         5.847736       0.618100
                                                         2.494033       0.066069
                                                         0.988355       0.262898
                                                         0.344978       0.004720
                                                         0.099466       0.007748
                          1       8    5fy2z            10.077428      -1.045795
                                                         5.847736       1.382114
                                                         2.494033       0.147734
                                                         0.988355       0.587859
                                                         0.344978       0.010555
                                                         0.099466       0.017325
                          1       8    5fyz2            10.077428      -1.045795
                                                         5.847736       1.382114
                                                         2.494033       0.147734
                                                         0.988355       0.587859
                                                         0.344978       0.010555
                                                         0.099466       0.017325
                          1       8    5fz3             10.077428      -0.467694
                                                         5.847736       0.618100
                                                         2.494033       0.066069
                                                         0.988355       0.262898
                                                         0.344978       0.004720
                                                         0.099466       0.007748

       Atomic covalent radius [Angstrom]:                                  1.150

       Atomic van der Waals radius [Angstrom]:                             1.630

     GTH Potential information for                                   GTH-PBE-q18

       Description:                       Goedecker-Teter-Hutter pseudopotential
                                           Goedecker et al., PRB 54, 1703 (1996)
                                          Hartwigsen et al., PRB 58, 3641 (1998)
                                                      Krack, TCA 114, 145 (2005)

       Gaussian exponent of the core charge distribution:               4.081633
       Electronic configuration (s p d ...):                           4   6   8

       Parameters of the local part of the GTH pseudopotential:

                          rloc        C1          C2          C3          C4
                        0.350000    2.102166    0.648484

       Parameters of the non-local part of the GTH pseudopotential:

                   l      r(l)      h(i,j,l)

                   0    0.261295    0.622658    9.970227
                                    9.970227  -12.871507
                   1    0.224253  -11.142708   12.429566
                                   12.429566  -14.706861
                   2    0.215348  -12.628146


 MOLECULE KIND INFORMATION


 All atoms are their own molecule, skipping detailed information


 TOTAL NUMBERS AND MAXIMUM NUMBERS

  Total number of            - Atomic kinds:                                   2
                             - Atoms:                                         32
                             - Shell sets:                                    32
                             - Shells:                                       256
                             - Primitive Cartesian functions:                192
                             - Cartesian basis functions:                    992
                             - Spherical basis functions:                    832

  Maximum angular momentum of- Orbital basis functions:                        3
                             - Local part of the GTH pseudopotential:          2
                             - Non-local part of the GTH pseudopotential:      3


 MODULE QUICKSTEP: ATOMIC COORDINATES IN ANGSTROM

   Atom Kind Element         X             Y             Z       Z(eff)     Mass
      1    1 Ni   28      0.876298      0.876298      7.370500  18.0000  58.6934
      2    1 Ni   28      0.876298      4.382298      7.370500  18.0000  58.6934
      3    1 Ni   28      2.629298      2.629298      7.370500  18.0000  58.6934
      4    1 Ni   28      2.629298      6.135298      7.370500  18.0000  58.6934
      5    1 Ni   28      4.382298      0.876298      7.370500  18.0000  58.6934
      6    1 Ni   28      4.382298      4.382298      7.370500  18.0000  58.6934
      7    1 Ni   28      6.135298      2.629298      7.370500  18.0000  58.6934
      8    1 Ni   28      6.135298      6.135298      7.370500  18.0000  58.6934
      9    2 Ni   28      0.876298      2.629298      9.123500  18.0000  58.6934
     10    2 Ni   28      0.876298      6.135298      9.123500  18.0000  58.6934
     11    2 Ni   28      2.629298      0.876298      9.123500  18.0000  58.6934
     12    2 Ni   28      2.629298      4.382298      9.123500  18.0000  58.6934
     13    2 Ni   28      4.382298      2.629298      9.123500  18.0000  58.6934
     14    2 Ni   28      4.382298      6.135298      9.123500  18.0000  58.6934
     15    2 Ni   28      6.135298      0.876298      9.123500  18.0000  58.6934
     16    2 Ni   28      6.135298      4.382298      9.123500  18.0000  58.6934
     17    2 Ni   28      0.876298      0.876298     10.876500  18.0000  58.6934
     18    2 Ni   28      0.876298      4.382298     10.876500  18.0000  58.6934
     19    2 Ni   28      2.629298      2.629298     10.876500  18.0000  58.6934
     20    2 Ni   28      2.629298      6.135298     10.876500  18.0000  58.6934
     21    2 Ni   28      4.382298      0.876298     10.876500  18.0000  58.6934
     22    2 Ni   28      4.382298      4.382298     10.876500  18.0000  58.6934
     23    2 Ni   28      6.135298      2.629298     10.876500  18.0000  58.6934
     24    2 Ni   28      6.135298      6.135298     10.876500  18.0000  58.6934
     25    1 Ni   28      0.876298      2.629298     12.629500  18.0000  58.6934
     26    1 Ni   28      0.876298      6.135298     12.629500  18.0000  58.6934
     27    1 Ni   28      2.629298      0.876298     12.629500  18.0000  58.6934
     28    1 Ni   28      2.629298      4.382298     12.629500  18.0000  58.6934
     29    1 Ni   28      4.382298      2.629298     12.629500  18.0000  58.6934
     30    1 Ni   28      4.382298      6.135298     12.629500  18.0000  58.6934
     31    1 Ni   28      6.135298      0.876298     12.629500  18.0000  58.6934
     32    1 Ni   28      6.135298      4.382298     12.629500  18.0000  58.6934



 SCF PARAMETERS         Density guess:                                    ATOMIC
                        --------------------------------------------------------
                        max_scf:                                             500
                        max_scf_history:                                       0
                        max_diis:                                              4
                        --------------------------------------------------------
                        eps_scf:                                        5.00E-04
                        eps_scf_history:                                0.00E+00
                        eps_diis:                                       1.00E-01
                        eps_eigval:                                     1.00E-05
                        --------------------------------------------------------
                        level_shift [a.u.]:                             0.000000
                        added MOs                                       534  553
                        --------------------------------------------------------
                        Mixing method:                            BROYDEN_MIXING
                                                charge density mixing in g-space
                        --------------------------------------------------------
                        Smear method:                                FERMI_DIRAC
                        Electronic temperature [K]:                       2000.0
                        Electronic temperature [a.u.]:                  6.33E-03
                        Accuracy threshold:                             1.00E-10
                        --------------------------------------------------------
                        No outer SCF

 PW_GRID| Information for grid number                                          1
 PW_GRID| Grid distributed over                                   128 processors
 PW_GRID| Real space group dimensions                                     8   16
 PW_GRID| the grid is blocked:                                               YES
 PW_GRID| Cutoff [a.u.]                                                    300.0
 PW_GRID| spherical cutoff:                                                   NO
 PW_GRID|   Bounds   1            -54      53                Points:         108
 PW_GRID|   Bounds   2            -54      53                Points:         108
 PW_GRID|   Bounds   3           -150     149                Points:         300
 PW_GRID| Volume element (a.u.^3)  0.1896E-02     Volume (a.u.^3)      6635.2971
 PW_GRID| Grid span                                                    FULLSPACE
 PW_GRID|   Distribution                         Average         Max         Min
 PW_GRID|   G-Vectors                            27337.5       28728       25272
 PW_GRID|   G-Rays                                 253.1         266         234
 PW_GRID|   Real Space Points                    27337.5       28728       25272

 PW_GRID| Information for grid number                                          2
 PW_GRID| Number of the reference grid                                         1
 PW_GRID| Grid distributed over                                   128 processors
 PW_GRID| Real space group dimensions                                     8   16
 PW_GRID| the grid is blocked:                                                NO
 PW_GRID| Cutoff [a.u.]                                                    100.0
 PW_GRID| spherical cutoff:                                                   NO
 PW_GRID|   Bounds   1            -30      29                Points:          60
 PW_GRID|   Bounds   2            -30      29                Points:          60
 PW_GRID|   Bounds   3            -90      89                Points:         180
 PW_GRID| Volume element (a.u.^3)  0.1024E-01     Volume (a.u.^3)      6635.2971
 PW_GRID| Grid span                                                    FULLSPACE
 PW_GRID|   Distribution                         Average         Max         Min
 PW_GRID|   G-Vectors                             5062.5       15960           0
 PW_GRID|   G-Rays                                  84.4         266           0
 PW_GRID|   Real Space Points                     5062.5        5760        3780

 PW_GRID| Information for grid number                                          3
 PW_GRID| Number of the reference grid                                         1
 PW_GRID| Grid distributed over                                   128 processors
 PW_GRID| Real space group dimensions                                     8   16
 PW_GRID| the grid is blocked:                                                NO
 PW_GRID| Cutoff [a.u.]                                                     33.3
 PW_GRID| spherical cutoff:                                                   NO
 PW_GRID|   Bounds   1            -18      17                Points:          36
 PW_GRID|   Bounds   2            -18      17                Points:          36
 PW_GRID|   Bounds   3            -50      49                Points:         100
 PW_GRID| Volume element (a.u.^3)  0.5120E-01     Volume (a.u.^3)      6635.2971
 PW_GRID| Grid span                                                    FULLSPACE
 PW_GRID|   Distribution                         Average         Max         Min
 PW_GRID|   G-Vectors                             1012.5        9576           0
 PW_GRID|   G-Rays                                  28.1         266           0
 PW_GRID|   Real Space Points                     1012.5        1500         800

 PW_GRID| Information for grid number                                          4
 PW_GRID| Number of the reference grid                                         1
 PW_GRID| Grid distributed over                                   128 processors
 PW_GRID| Real space group dimensions                                     8   16
 PW_GRID| the grid is blocked:                                                NO
 PW_GRID| Cutoff [a.u.]                                                     11.1
 PW_GRID| spherical cutoff:                                                   NO
 PW_GRID|   Bounds   1            -10       9                Points:          20
 PW_GRID|   Bounds   2            -10       9                Points:          20
 PW_GRID|   Bounds   3            -30      29                Points:          60
 PW_GRID| Volume element (a.u.^3)  0.2765         Volume (a.u.^3)      6635.2971
 PW_GRID| Grid span                                                    FULLSPACE
 PW_GRID|   Distribution                         Average         Max         Min
 PW_GRID|   G-Vectors                              187.5        3800           0
 PW_GRID|   G-Rays                                   9.4         190           0
 PW_GRID|   Real Space Points                      187.5         360         120

 PW_GRID| Information for grid number                                          5
 PW_GRID| Number of the reference grid                                         1
 PW_GRID| Grid distributed over                                   128 processors
 PW_GRID| Real space group dimensions                                     8   16
 PW_GRID| the grid is blocked:                                                NO
 PW_GRID| Cutoff [a.u.]                                                      3.7
 PW_GRID| spherical cutoff:                                                   NO
 PW_GRID|   Bounds   1             -6       5                Points:          12
 PW_GRID|   Bounds   2             -6       5                Points:          12
 PW_GRID|   Bounds   3            -18      17                Points:          36
 PW_GRID| Volume element (a.u.^3)   1.280         Volume (a.u.^3)      6635.2971
 PW_GRID| Grid span                                                    FULLSPACE
 PW_GRID|   Distribution                         Average         Max         Min
 PW_GRID|   G-Vectors                               40.5        1296           0
 PW_GRID|   G-Rays                                   3.4         108           0
 PW_GRID|   Real Space Points                       40.5          72           0

 POISSON| Solver                                                        PERIODIC
 POISSON| Periodicity                                                        XYZ

 RS_GRID| Information for grid number                                          1
 RS_GRID|   Bounds   1            -54      53                Points:         108
 RS_GRID|   Bounds   2            -54      53                Points:         108
 RS_GRID|   Bounds   3           -150     149                Points:         300
 RS_GRID| Real space distribution over                                  8 groups
 RS_GRID| Real space distribution along direction                              2
 RS_GRID| Border size                                                         28
 RS_GRID| Real space distribution over                                 16 groups
 RS_GRID| Real space distribution along direction                              3
 RS_GRID| Border size                                                         28
 RS_GRID|   Distribution                         Average         Max         Min
 RS_GRID|   Planes                                  69.5          70          69
 RS_GRID|   Distribution                         Average         Max         Min
 RS_GRID|   Planes                                  74.8          75          74

 RS_GRID| Information for grid number                                          2
 RS_GRID|   Bounds   1            -30      29                Points:          60
 RS_GRID|   Bounds   2            -30      29                Points:          60
 RS_GRID|   Bounds   3            -90      89                Points:         180
 RS_GRID| Real space fully replicated
 RS_GRID| Group size                                                           1

 RS_GRID| Information for grid number                                          3
 RS_GRID|   Bounds   1            -18      17                Points:          36
 RS_GRID|   Bounds   2            -18      17                Points:          36
 RS_GRID|   Bounds   3            -50      49                Points:         100
 RS_GRID| Real space fully replicated
 RS_GRID| Group size                                                           1

 RS_GRID| Information for grid number                                          4
 RS_GRID|   Bounds   1            -10       9                Points:          20
 RS_GRID|   Bounds   2            -10       9                Points:          20
 RS_GRID|   Bounds   3            -30      29                Points:          60
 RS_GRID| Real space fully replicated
 RS_GRID| Group size                                                           1

 RS_GRID| Information for grid number                                          5
 RS_GRID|   Bounds   1             -6       5                Points:          12
 RS_GRID|   Bounds   2             -6       5                Points:          12
 RS_GRID|   Bounds   3            -18      17                Points:          36
 RS_GRID| Real space fully replicated
 RS_GRID| Group size                                                           1

 Spin 1

 Number of electrons:                                                        297.600
 Number of occupied orbitals:                                                298
 Number of molecular orbitals:                                               832

 Spin 2

 Number of electrons:                                                        278.400
 Number of occupied orbitals:                                                279
 Number of molecular orbitals:                                               832

 Number of orbital functions:                                                832
 Number of independent orbital functions:                                    832

 Extrapolation method: initial_guess

 Atomic guess: The first density matrix is obtained in terms of atomic orbitals
               and electronic configurations assigned to each atomic kind

 Guess for atomic kind: Ni_i

 Electronic structure
    Total number of core electrons                                         10.00
    Total number of valence electrons                                      18.00
    Total number of electrons                                              28.00
    Multiplicity                                                         doublet
    Alpha Electrons
    S   [  1.00  1.00] 1.00  1.00
    P   [  3.00] 3.00
    D      4.35
    Beta Electrons
    S   [  1.00  1.00] 1.00  1.00
    P   [  3.00] 3.00
    D      3.65


 *******************************************************************************
                  Iteration          Convergence                     Energy [au]
 *******************************************************************************
                          1         1.51729                    -167.067424631347
                          2         15.3902                    -156.642654318634
                          3         2.33433                    -168.319355313541
                          4        0.206730                    -168.609905008081
                          5        0.814175E-01                -168.612873080494
                          6        0.173318E-01                -168.613470181066
                          7        0.290432E-02                -168.613543571401
                          8        0.311825E-02                -168.613543401474
                          9        0.179670E-03                -168.613544404477
                         10        0.169386E-02                -168.613544207811
                         11        0.473341E-03                -168.613544360253
                         12        0.165417E-03                -168.613544400419
                         13        0.162622E-03                -168.613544401489
                         14        0.158325E-03                -168.613544403900
                         15        0.177007E-03                -168.613544402509
                         16        0.138916E-03                -168.613544404900
                         17        0.934549E-04                -168.613544406149
                         18        0.119916E-03                -168.613544405789
                         19        0.131607E-03                -168.613544405591
                         20        0.169309E-03                -168.613544404773
                         21        0.551337E-04                -168.613544406656
                         22        0.382664E-04                -168.613544406759
                         23        0.378942E-04                -168.613544406765
                         24        0.381089E-04                -168.613544406765
                         25        0.390835E-04                -168.613544406759
                         26        0.308614E-04                -168.613544406841
                         27        0.205044E-04                -168.613544406892
                         28        0.200942E-04                -168.613544406893
                         29        0.199375E-04                -168.613544406893
                         30        0.200198E-04                -168.613544406894
                         31        0.161325E-04                -168.613544406903
                         32        0.330614E-05                -168.613544406925
                         33        0.238713E-05                -168.613544406926
                         34        0.265439E-05                -168.613544406926
                         35        0.277073E-05                -168.613544406926
                         36        0.335175E-05                -168.613544406926
                         37        0.148809E-05                -168.613544406927
                         38        0.133447E-05                -168.613544406927
                         39        0.918735E-06                -168.613544406927

 Energy components [Hartree]           Total Energy ::         -168.613544406927
                                        Band Energy ::          -26.569761966525
                                     Kinetic Energy ::           97.306723392622
                                   Potential Energy ::         -265.920267799548
                                      Virial (-V/T) ::            2.732804666812
                                        Core Energy ::         -299.567979157577
                                          XC Energy ::          -16.227189041387
                                     Coulomb Energy ::          147.181623792037
                       Total Pseudopotential Energy ::         -396.961043505191
                       Local Pseudopotential Energy ::         -362.648291121960
                    Nonlocal Pseudopotential Energy ::          -34.312752383230
                                        Confinement ::            0.863409549921

 Orbital energies  State     Spin  L     Occupation   Energy[a.u.]    Energy[eV]

                       1    alpha  0          1.000      -4.172666   -113.544030
                       2    alpha  0          1.000      -0.181431     -4.936983
                       1     beta  0          1.000      -4.140640   -112.672541
                       2     beta  0          1.000      -0.176372     -4.799339

                       1    alpha  1          3.000      -2.578739    -70.171064
                       1     beta  1          3.000      -2.547579    -69.323162

                       1    alpha  2          4.350      -0.327039     -8.899191
                       1     beta  2          3.650      -0.300569     -8.178887


 Total Electron Density at R=0:                                         0.030422

 Guess for atomic kind: Ni_b

 Electronic structure
    Total number of core electrons                                         10.00
    Total number of valence electrons                                      18.00
    Total number of electrons                                              28.00
    Multiplicity                                                         doublet
    Alpha Electrons
    S   [  1.00  1.00] 1.00  1.00
    P   [  3.00] 3.00
    D      4.25
    Beta Electrons
    S   [  1.00  1.00] 1.00  1.00
    P   [  3.00] 3.00
    D      3.75


 *******************************************************************************
                  Iteration          Convergence                     Energy [au]
 *******************************************************************************
                          1         1.51687                    -167.065012761055
                          2         14.9817                    -156.620431300845
                          3         2.25575                    -168.317311438693
                          4        0.189210                    -168.607926092750
                          5        0.708658E-01                -168.610773319290
                          6        0.122256E-01                -168.611238205502
                          7        0.598421E-02                -168.611272268995
                          8        0.528277E-02                -168.611272438110
                          9        0.104644E-02                -168.611275321653
                         10        0.260234E-02                -168.611274926630
                         11        0.975322E-03                -168.611275328217
                         12        0.161067E-03                -168.611275447773
                         13        0.147413E-03                -168.611275446839
                         14        0.115114E-03                -168.611275449434
                         15        0.167217E-03                -168.611275445436
                         16        0.255374E-04                -168.611275450531
                         17        0.418369E-04                -168.611275450414
                         18        0.393709E-04                -168.611275450477
                         19        0.239931E-04                -168.611275450542
                         20        0.173885E-04                -168.611275450557
                         21        0.851368E-05                -168.611275450578
                         22        0.849928E-05                -168.611275450580
                         23        0.544937E-05                -168.611275450584
                         24        0.540003E-05                -168.611275450586
                         25        0.613371E-05                -168.611275450584
                         26        0.311593E-06                -168.611275450588

 Energy components [Hartree]           Total Energy ::         -168.611275450588
                                        Band Energy ::          -26.568680144499
                                     Kinetic Energy ::           97.303659243130
                                   Potential Energy ::         -265.914934693718
                                      Virial (-V/T) ::            2.732835915546
                                        Core Energy ::         -299.566189183323
                                          XC Energy ::          -16.224592878785
                                     Coulomb Energy ::          147.179506611520
                       Total Pseudopotential Energy ::         -396.956189041778
                       Local Pseudopotential Energy ::         -362.645043136649
                    Nonlocal Pseudopotential Energy ::          -34.311145905129
                                        Confinement ::            0.863406153250

 Orbital energies  State     Spin  L     Occupation   Energy[a.u.]    Energy[eV]

                       1    alpha  0          1.000      -4.168335   -113.426177
                       2    alpha  0          1.000      -0.180730     -4.917906
                       1     beta  0          1.000      -4.145459   -112.803683
                       2     beta  0          1.000      -0.177117     -4.819606

                       1    alpha  1          3.000      -2.574525    -70.056390
                       1     beta  1          3.000      -2.552268    -69.450746

                       1    alpha  2          4.250      -0.323446     -8.801405
                       1     beta  2          3.750      -0.304537     -8.286881


 Total Electron Density at R=0:                                         0.030429

 Spin 1
 Re-scaling the density matrix to get the right number of electrons for spin 1
                  # Electrons              Trace(P)               Scaling factor
                        297.600             297.600                        1.000

 Spin 2
 Re-scaling the density matrix to get the right number of electrons for spin 2
                  # Electrons              Trace(P)               Scaling factor
                        278.400             278.400                        1.000


 SCF WAVEFUNCTION OPTIMIZATION

  Step     Update method      Time    Convergence         Total energy    Change
  ------------------------------------------------------------------------------
     1 NoMix/Diag. 0.10E-02    1.9     0.87318318     -5426.4441344177 -5.43E+03
     2 Broy./Diag. 0.10E-02    1.5     0.00114153     -5310.9613242304  1.15E+02
[...]
   118 Broy./Diag. 0.10E-02    1.5     0.00660017     -5417.5474137378  1.86E-01
   119 Broy./Diag. 0.10E-02    1.5     0.01866912     -5417.3884899030  1.59E-01
   120 Broy./Diag. 0.10E-02    1.5     0.02821881     -5417.3282998924  6.02E-02
   121 Broy./Diag. 0.10E-02    1.5     0.01144896     -5417.9131384486 -5.85E-01
   122 Broy./Diag. 0.10E-02    1.5     0.02743697     -5418.0357404423 -1.23E-01
   123 Broy./Diag. 0.10E-02    1.5     0.01336142     -5417.3175005476  7.18E-01
   124 Broy./Diag. 0.10E-02    1.5     0.00764984     -5417.5070223878 -1.90E-01
   125 Broy./Diag. 0.10E-02    1.5     0.00349461     -5417.6658057580 -1.59E-01
   126 Broy./Diag. 0.10E-02    1.5     0.00988203     -5417.7002213223 -3.44E-02
   127 Broy./Diag. 0.10E-02    1.5     0.01606541     -5418.4745873439 -7.74E-01
   128 Broy./Diag. 0.10E-02    1.5     0.02315699     -5418.7283313091 -2.54E-01
   129 Broy./Diag. 0.10E-02    1.5     0.00886236     -5418.6455673031  8.28E-02
   130 Broy./Diag. 0.10E-02    1.5     0.01570008     -5418.4613383009  1.84E-01
   131 Broy./Diag. 0.10E-02    1.5     0.00619450     -5417.9226310085  5.39E-01
   132 Broy./Diag. 0.10E-02    1.5     0.02181671     -5417.8601479244  6.25E-02
   133 Broy./Diag. 0.10E-02    1.5     0.01175336     -5417.8714347695 -1.13E-02
   134 Broy./Diag. 0.10E-02    1.5     0.01144137     -5418.2012484420 -3.30E-01
   135 Broy./Diag. 0.10E-02    1.5     0.00719909     -5417.6203546690  5.81E-01
   136 Broy./Diag. 0.10E-02    1.5     0.00760804     -5417.6161482924  4.21E-03
   137 Broy./Diag. 0.10E-02    1.5     0.01807418     -5417.5231992965  9.29E-02
   138 Broy./Diag. 0.10E-02    1.5     0.00212177     -5417.8274408918 -3.04E-01
   139 Broy./Diag. 0.10E-02    1.5     0.01682581     -5418.0941125536 -2.67E-01
   140 Broy./Diag. 0.10E-02    1.5     0.01155417     -5418.3537686737 -2.60E-01
   141 Broy./Diag. 0.10E-02    1.5     0.01137056     -5418.1295130378  2.24E-01
   142 Broy./Diag. 0.10E-02    1.5     0.02390902     -5417.8289379156  3.01E-01
   143 Broy./Diag. 0.10E-02    1.5     0.01843099     -5417.4078783358  4.21E-01
   144 Broy./Diag. 0.10E-02    1.5     0.04916967     -5418.0851926107 -6.77E-01
   145 Broy./Diag. 0.10E-02    1.5     0.01231686     -5417.6877868439  3.97E-01
   146 Broy./Diag. 0.10E-02    1.5     0.04593667     -5417.2754046320  4.12E-01
   147 Broy./Diag. 0.10E-02    1.5     0.01547119     -5418.1134147569 -8.38E-01
   148 Broy./Diag. 0.10E-02    1.5     0.01398413     -5417.3797073656  7.34E-01
   149 Broy./Diag. 0.10E-02    1.5     0.02089750     -5417.1293993169  2.50E-01
   150 Broy./Diag. 0.10E-02    1.5     0.01482458     -5416.9709497904  1.58E-01
   151 Broy./Diag. 0.10E-02    1.5     0.00576180     -5417.0041018271 -3.32E-02
   152 Broy./Diag. 0.10E-02    1.5     0.01143791     -5416.9822767208  2.18E-02
   153 Broy./Diag. 0.10E-02    1.5     0.00823087     -5416.6829290913  2.99E-01
   154 Broy./Diag. 0.10E-02    1.5     0.02974910     -5416.4388643757  2.44E-01
   155 Broy./Diag. 0.10E-02    1.5     0.03291144     -5416.5945569823 -1.56E-01
   156 Broy./Diag. 0.10E-02    1.5     0.01681384     -5416.8655374009 -2.71E-01
   157 Broy./Diag. 0.10E-02    1.5     0.00741366     -5416.9422955922 -7.68E-02
   158 Broy./Diag. 0.10E-02    1.5     0.06032132     -5417.2167533819 -2.74E-01
   159 Broy./Diag. 0.10E-02    1.5     0.01034470     -5416.6100507868  6.07E-01
   160 Broy./Diag. 0.10E-02    1.5     0.00701970     -5416.8631308776 -2.53E-01
   161 Broy./Diag. 0.10E-02    1.5     0.04615289     -5416.8959592003 -3.28E-02
   162 Broy./Diag. 0.10E-02    1.5     0.06401306     -5417.1950657291 -2.99E-01
   163 Broy./Diag. 0.10E-02    1.5     0.01029661     -5416.8358712332  3.59E-01
   164 Broy./Diag. 0.10E-02    1.5     0.01119364     -5417.2263319863 -3.90E-01
   165 Broy./Diag. 0.10E-02    1.5     0.02170950     -5417.1228420710  1.03E-01
   166 Broy./Diag. 0.10E-02    1.5     0.07667771     -5417.1262366877 -3.39E-03
   167 Broy./Diag. 0.10E-02    1.5     0.02368639     -5417.6436072678 -5.17E-01
   168 Broy./Diag. 0.10E-02    1.5     0.02105420     -5417.7115547504 -6.79E-02
   169 Broy./Diag. 0.10E-02    1.5     0.01359610     -5417.1645335482  5.47E-01
   170 Broy./Diag. 0.10E-02    1.5     0.02496685     -5417.0678355915  9.67E-02
   171 Broy./Diag. 0.10E-02    1.5     0.02704834     -5417.1249944775 -5.72E-02
   172 Broy./Diag. 0.10E-02    1.5     0.03286156     -5417.2211021692 -9.61E-02
   173 Broy./Diag. 0.10E-02    1.5     0.02256019     -5417.4319768784 -2.11E-01
   174 Broy./Diag. 0.10E-02    1.5     0.06039626     -5417.3899526727  4.20E-02
   175 Broy./Diag. 0.10E-02    1.5     0.08134957     -5418.1070482607 -7.17E-01
   176 Broy./Diag. 0.10E-02    1.5     0.09638472     -5420.9309761348 -2.82E+00
   177 Broy./Diag. 0.10E-02    1.5     0.08076049     -5422.1763944126 -1.25E+00
   178 Broy./Diag. 0.10E-02    1.5     0.00658007     -5419.4086845230  2.77E+00
   179 Broy./Diag. 0.10E-02    1.5     0.03784152     -5419.3471513922  6.15E-02
   180 Broy./Diag. 0.10E-02    1.5     0.02647066     -5419.5506790280 -2.04E-01
   181 Broy./Diag. 0.10E-02    1.5     0.03089902     -5418.6815929326  8.69E-01
   182 Broy./Diag. 0.10E-02    1.5     0.03576962     -5419.6830019489 -1.00E+00
   183 Broy./Diag. 0.10E-02    1.5     0.03162867     -5419.5009645493  1.82E-01
   184 Broy./Diag. 0.10E-02    1.5     0.03437761     -5419.5109195440 -9.95E-03
   185 Broy./Diag. 0.10E-02    1.5     0.00648645     -5419.1982387985  3.13E-01
   186 Broy./Diag. 0.10E-02    1.5     0.00523525     -5419.1598439849  3.84E-02
   187 Broy./Diag. 0.10E-02    1.5     0.00499201     -5418.9837807770  1.76E-01
   188 Broy./Diag. 0.10E-02    1.5     0.00335144     -5418.8203491629  1.63E-01
   189 Broy./Diag. 0.10E-02    1.5     0.02045282     -5419.0995715664 -2.79E-01
   190 Broy./Diag. 0.10E-02    1.5     0.03903542     -5418.6757782649  4.24E-01
   191 Broy./Diag. 0.10E-02    1.5     0.00711638     -5418.1360378344  5.40E-01
   192 Broy./Diag. 0.10E-02    1.5     0.02979502     -5418.2279459826 -9.19E-02
   193 Broy./Diag. 0.10E-02    1.5     0.02491989     -5418.2035570628  2.44E-02
   194 Broy./Diag. 0.10E-02    1.5     0.01009110     -5418.9958588928 -7.92E-01
   195 Broy./Diag. 0.10E-02    1.5     0.01943750     -5419.0672765238 -7.14E-02
   196 Broy./Diag. 0.10E-02    1.5     0.01793702     -5419.0918151603 -2.45E-02
   197 Broy./Diag. 0.10E-02    1.5     0.01049842     -5420.0618583780 -9.70E-01
   198 Broy./Diag. 0.10E-02    1.5     0.00343806     -5419.7367050848  3.25E-01
   199 Broy./Diag. 0.10E-02    1.5     0.01371856     -5419.8804408168 -1.44E-01
   200 Broy./Diag. 0.10E-02    1.5     0.00833472     -5419.5440980916  3.36E-01
   201 Broy./Diag. 0.10E-02    1.5     0.00654815     -5419.5766531044 -3.26E-02
   202 Broy./Diag. 0.10E-02    1.5     0.00203988     -5419.6937433073 -1.17E-01
   203 Broy./Diag. 0.10E-02    1.5     0.01237199     -5419.6825119545  1.12E-02
   204 Broy./Diag. 0.10E-02    1.5     0.03176801     -5419.3643153452  3.18E-01
   205 Broy./Diag. 0.10E-02    1.5     0.00824008     -5418.2022426745  1.16E+00
   206 Broy./Diag. 0.10E-02    1.5     0.01927311     -5417.8633496660  3.39E-01
   207 Broy./Diag. 0.10E-02    1.5     0.01280336     -5418.6307554391 -7.67E-01
   208 Broy./Diag. 0.10E-02    1.5     0.04931363     -5418.4163225217  2.14E-01
   209 Broy./Diag. 0.10E-02    1.5     0.00913622     -5417.4102587733  1.01E+00
   210 Broy./Diag. 0.10E-02    1.5     0.00912687     -5417.1367626152  2.73E-01
   211 Broy./Diag. 0.10E-02    1.5     0.00829430     -5417.1579978585 -2.12E-02
   212 Broy./Diag. 0.10E-02    1.5     0.01259078     -5417.0168298517  1.41E-01
   213 Broy./Diag. 0.10E-02    1.5     0.02717543     -5416.8704786248  1.46E-01
   214 Broy./Diag. 0.10E-02    1.5     0.04838780     -5417.6870913420 -8.17E-01
   215 Broy./Diag. 0.10E-02    1.5     0.03870613     -5417.6390505535  4.80E-02
   216 Broy./Diag. 0.10E-02    1.5     0.02461353     -5417.3496086967  2.89E-01
   217 Broy./Diag. 0.10E-02    1.5     0.01788878     -5417.5147471728 -1.65E-01
   218 Broy./Diag. 0.10E-02    1.5     0.00778003     -5417.3915600562  1.23E-01
   219 Broy./Diag. 0.10E-02    1.5     0.01313483     -5417.2013095161  1.90E-01
   220 Broy./Diag. 0.10E-02    1.5     0.02199161     -5417.2526028641 -5.13E-02
   221 Broy./Diag. 0.10E-02    1.5     0.07104349     -5417.5006142410 -2.48E-01
   222 Broy./Diag. 0.10E-02    1.5     0.08273757     -5418.0280594228 -5.27E-01
   223 Broy./Diag. 0.10E-02    1.5     0.01123899     -5417.4543323204  5.74E-01
   224 Broy./Diag. 0.10E-02    1.5     0.04169602     -5417.6106789195 -1.56E-01
   225 Broy./Diag. 0.10E-02    1.5     0.03379588     -5419.2319850895 -1.62E+00
   226 Broy./Diag. 0.10E-02    1.5     0.02465160     -5419.8636762194 -6.32E-01
   227 Broy./Diag. 0.10E-02    1.5     0.03603008     -5420.3232008779 -4.60E-01
   228 Broy./Diag. 0.10E-02    1.5     0.00548779     -5421.0060984617 -6.83E-01
   229 Broy./Diag. 0.10E-02    1.5     0.03135474     -5420.4468386558  5.59E-01
   230 Broy./Diag. 0.10E-02    1.5     0.01080802     -5420.4543902108 -7.55E-03
   231 Broy./Diag. 0.10E-02    1.5     0.02314364     -5420.2565433273  1.98E-01
   232 Broy./Diag. 0.10E-02    1.5     0.04117101     -5419.8654219325  3.91E-01
   233 Broy./Diag. 0.10E-02    1.5     0.07092315     -5419.7559074876  1.10E-01
   234 Broy./Diag. 0.10E-02    1.5     0.07407739     -5419.0650084502  6.91E-01
   235 Broy./Diag. 0.10E-02    1.5     0.06127348     -5419.6556707182 -5.91E-01
   236 Broy./Diag. 0.10E-02    1.5     0.02971765     -5419.6125940025  4.31E-02
   237 Broy./Diag. 0.10E-02    1.5     0.12519050     -5419.7088768468 -9.63E-02
   238 Broy./Diag. 0.10E-02    1.5     0.01357053     -5419.4892154462  2.20E-01
   239 Broy./Diag. 0.10E-02    1.5     0.02477049     -5419.4606566970  2.86E-02
   240 Broy./Diag. 0.10E-02    1.5     0.02086091     -5419.7984818441 -3.38E-01
   241 Broy./Diag. 0.10E-02    1.5     0.01021257     -5418.9680998983  8.30E-01
   242 Broy./Diag. 0.10E-02    1.5     0.05189404     -5418.9725357967 -4.44E-03
   243 Broy./Diag. 0.10E-02    1.5     0.08428599     -5420.1584857633 -1.19E+00
   244 Broy./Diag. 0.10E-02    1.5     0.02087305     -5419.6746953710  4.84E-01
   245 Broy./Diag. 0.10E-02    1.5     0.09520434     -5418.8677090449  8.07E-01
   246 Broy./Diag. 0.10E-02    1.5     0.02434362     -5418.6669668042  2.01E-01
   247 Broy./Diag. 0.10E-02    1.5     0.01797871     -5418.4151330807  2.52E-01
   248 Broy./Diag. 0.10E-02    1.5     0.03481084     -5417.6818342700  7.33E-01
   249 Broy./Diag. 0.10E-02    1.5     0.01187978     -5416.9189198556  7.63E-01
   250 Broy./Diag. 0.10E-02    1.5     0.02037901     -5416.7085285447  2.10E-01
   251 Broy./Diag. 0.10E-02    1.5     0.03561070     -5416.4523136806  2.56E-01
   252 Broy./Diag. 0.10E-02    1.5     0.02818446     -5416.6172476786 -1.65E-01
   253 Broy./Diag. 0.10E-02    1.5     0.03055601     -5416.0566156124  5.61E-01
   254 Broy./Diag. 0.10E-02    1.5     0.02449137     -5415.8126373924  2.44E-01
   255 Broy./Diag. 0.10E-02    1.5     0.10073668     -5415.8525998437 -4.00E-02
   256 Broy./Diag. 0.10E-02    1.5     0.01666320     -5416.5118316475 -6.59E-01
   257 Broy./Diag. 0.10E-02    1.5     0.11269276     -5416.3464953050  1.65E-01
   258 Broy./Diag. 0.10E-02    1.5     0.00687031     -5417.5095768142 -1.16E+00
   259 Broy./Diag. 0.10E-02    1.5     0.03925277     -5417.5160836006 -6.51E-03
   260 Broy./Diag. 0.10E-02    1.5     0.01840005     -5416.4303311185  1.09E+00
   261 Broy./Diag. 0.10E-02    1.5     0.01029424     -5416.7701816412 -3.40E-01
   262 Broy./Diag. 0.10E-02    1.5     0.01819952     -5417.2194435566 -4.49E-01
   263 Broy./Diag. 0.10E-02    1.5     0.06855081     -5417.8185710261 -5.99E-01
   264 Broy./Diag. 0.10E-02    1.5     0.09715606     -5417.5536831186  2.65E-01
   265 Broy./Diag. 0.10E-02    1.5     0.06924881     -5417.3344420962  2.19E-01
   266 Broy./Diag. 0.10E-02    1.5     0.02440539     -5416.4610240630  8.73E-01
   267 Broy./Diag. 0.10E-02    1.5     0.03690508     -5416.3290234772  1.32E-01
   268 Broy./Diag. 0.10E-02    1.5     0.05393010     -5416.2857198042  4.33E-02
   269 Broy./Diag. 0.10E-02    1.5     0.01366665     -5416.8957489669 -6.10E-01
   270 Broy./Diag. 0.10E-02    1.5     0.05330329     -5416.8593230745  3.64E-02
   271 Broy./Diag. 0.10E-02    1.5     0.03311206     -5416.5840876454  2.75E-01
   272 Broy./Diag. 0.10E-02    1.5     0.03245884     -5417.4874117677 -9.03E-01
   273 Broy./Diag. 0.10E-02    1.5     0.02854614     -5416.6707511243  8.17E-01
   274 Broy./Diag. 0.10E-02    1.5     0.02722079     -5416.4980042733  1.73E-01
   275 Broy./Diag. 0.10E-02    1.5     0.06352905     -5416.4367236144  6.13E-02
   276 Broy./Diag. 0.10E-02    1.5     0.10117919     -5417.1738844290 -7.37E-01
   277 Broy./Diag. 0.10E-02    1.5     0.04692653     -5415.6060342171  1.57E+00
   278 Broy./Diag. 0.10E-02    1.5     0.05681816     -5415.9592470572 -3.53E-01
   279 Broy./Diag. 0.10E-02    1.5     0.07221713     -5417.2493104656 -1.29E+00
   280 Broy./Diag. 0.10E-02    1.5     0.01560581     -5416.3231944064  9.26E-01
   281 Broy./Diag. 0.10E-02    1.5     0.01460256     -5416.0073399927  3.16E-01
   282 Broy./Diag. 0.10E-02    1.5     0.02493871     -5416.1913521489 -1.84E-01
   283 Broy./Diag. 0.10E-02    1.5     0.10163717     -5416.9128667620 -7.22E-01
   284 Broy./Diag. 0.10E-02    1.5     0.07680943     -5416.9363641902 -2.35E-02
   285 Broy./Diag. 0.10E-02    1.5     0.02803968     -5416.0740376041  8.62E-01
   286 Broy./Diag. 0.10E-02    1.5     0.02484241     -5415.9675157859  1.07E-01
   287 Broy./Diag. 0.10E-02    1.5     0.00655471     -5416.5099340160 -5.42E-01
   288 Broy./Diag. 0.10E-02    1.5     0.04751318     -5416.8138346273 -3.04E-01
   289 Broy./Diag. 0.10E-02    1.5     0.01927209     -5417.4230790426 -6.09E-01
   290 Broy./Diag. 0.10E-02    1.5     0.07823892     -5417.5533334633 -1.30E-01
   291 Broy./Diag. 0.10E-02    1.5     0.01290083     -5416.9801901376  5.73E-01
   292 Broy./Diag. 0.10E-02    1.5     0.01697305     -5417.0174450816 -3.73E-02
   293 Broy./Diag. 0.10E-02    1.5     0.12653800     -5417.0575363463 -4.01E-02
   294 Broy./Diag. 0.10E-02    1.5     0.14394474     -5417.5061661487 -4.49E-01
   295 Broy./Diag. 0.10E-02    1.5     0.01172569     -5418.2033548141 -6.97E-01
   296 Broy./Diag. 0.10E-02    1.5     0.01105019     -5418.3507111431 -1.47E-01
   297 Broy./Diag. 0.10E-02    1.5     0.01375547     -5417.8602314255  4.90E-01
   298 Broy./Diag. 0.10E-02    1.5     0.00152232     -5417.5744407647  2.86E-01
   299 Broy./Diag. 0.10E-02    1.5     0.01022326     -5417.6879161111 -1.13E-01
   300 Broy./Diag. 0.10E-02    1.5     0.01347380     -5417.5846450849  1.03E-01
   301 Broy./Diag. 0.10E-02    1.5     0.03999934     -5417.6445576715 -5.99E-02
   302 Broy./Diag. 0.10E-02    1.5     0.05764279     -5418.5648252092 -9.20E-01
   303 Broy./Diag. 0.10E-02    1.5     0.14357688     -5418.8253800045 -2.61E-01
   304 Broy./Diag. 0.10E-02    1.5     0.02255156     -5417.0881185475  1.74E+00
   305 Broy./Diag. 0.10E-02    1.5     0.08281691     -5416.8988920286  1.89E-01
   306 Broy./Diag. 0.10E-02    1.5     0.01268562     -5418.3367054489 -1.44E+00
   307 Broy./Diag. 0.10E-02    1.5     0.03957615     -5418.0127143191  3.24E-01
   308 Broy./Diag. 0.10E-02    1.5     0.01782750     -5417.9703463946  4.24E-02
   309 Broy./Diag. 0.10E-02    1.5     0.01387171     -5417.9240087083  4.63E-02
   310 Broy./Diag. 0.10E-02    1.5     0.03930154     -5417.9635296449 -3.95E-02
   311 Broy./Diag. 0.10E-02    1.5     0.04466004     -5418.1478670426 -1.84E-01
   312 Broy./Diag. 0.10E-02    1.5     0.03480502     -5418.2973912562 -1.50E-01
   313 Broy./Diag. 0.10E-02    1.5     0.00591953     -5418.2366788125  6.07E-02
   314 Broy./Diag. 0.10E-02    1.5     0.02288869     -5417.9117315353  3.25E-01
   315 Broy./Diag. 0.10E-02    1.5     0.02493498     -5417.9333508493 -2.16E-02
   316 Broy./Diag. 0.10E-02    1.5     0.05267770     -5417.6146169845  3.19E-01
   317 Broy./Diag. 0.10E-02    1.5     0.01019852     -5417.9381709424 -3.24E-01
   318 Broy./Diag. 0.10E-02    1.5     0.01959681     -5417.8351447426  1.03E-01
   319 Broy./Diag. 0.10E-02    1.5     0.00450586     -5417.5926221218  2.43E-01
   320 Broy./Diag. 0.10E-02    1.5     0.03418708     -5417.4459333670  1.47E-01
   321 Broy./Diag. 0.10E-02    1.5     0.00272062     -5417.8914434267 -4.46E-01
   322 Broy./Diag. 0.10E-02    1.5     0.13737582     -5417.9187646881 -2.73E-02
   323 Broy./Diag. 0.10E-02    1.5     0.00267335     -5417.9774884274 -5.87E-02
   324 Broy./Diag. 0.10E-02    1.5     0.03960712     -5417.8876808108  8.98E-02
   325 Broy./Diag. 0.10E-02    1.5     0.01402336     -5417.9902964481 -1.03E-01
   326 Broy./Diag. 0.10E-02    1.5     0.02599578     -5418.3916152995 -4.01E-01
   327 Broy./Diag. 0.10E-02    1.5     0.01786507     -5417.8812744051  5.10E-01
   328 Broy./Diag. 0.10E-02    1.5     0.01918876     -5418.0021753050 -1.21E-01
   329 Broy./Diag. 0.10E-02    1.5     0.09063811     -5417.9098263762  9.23E-02
   330 Broy./Diag. 0.10E-02    1.5     0.02577896     -5418.3725737558 -4.63E-01
   331 Broy./Diag. 0.10E-02    1.5     0.05001479     -5418.8573261373 -4.85E-01
   332 Broy./Diag. 0.10E-02    1.5     0.02225860     -5419.2195433997 -3.62E-01
   333 Broy./Diag. 0.10E-02    1.5     0.01549704     -5418.3729962196  8.47E-01
   334 Broy./Diag. 0.10E-02    1.5     0.01402198     -5418.1267717272  2.46E-01
   335 Broy./Diag. 0.10E-02    1.5     0.02016887     -5418.0473675594  7.94E-02
   336 Broy./Diag. 0.10E-02    1.5     0.10704330     -5417.8948523834  1.53E-01
   337 Broy./Diag. 0.10E-02    1.5     0.03144526     -5418.0114128690 -1.17E-01
   338 Broy./Diag. 0.10E-02    1.5     0.04559525     -5417.6224167486  3.89E-01
   339 Broy./Diag. 0.10E-02    1.5     0.05511471     -5417.6984880925 -7.61E-02
   340 Broy./Diag. 0.10E-02    1.5     0.01467279     -5417.8323952184 -1.34E-01
   341 Broy./Diag. 0.10E-02    1.5     0.07917350     -5417.8167078129  1.57E-02
   342 Broy./Diag. 0.10E-02    1.5     0.11199846     -5417.8862528865 -6.95E-02
   343 Broy./Diag. 0.10E-02    1.5     0.02146047     -5418.1028164913 -2.17E-01
   344 Broy./Diag. 0.10E-02    1.5     0.02951282     -5418.2950482900 -1.92E-01
   345 Broy./Diag. 0.10E-02    1.5     0.03280344     -5418.3987186781 -1.04E-01
   346 Broy./Diag. 0.10E-02    1.5     0.03163274     -5418.0227163944  3.76E-01
   347 Broy./Diag. 0.10E-02    1.5     0.00652915     -5418.0480209160 -2.53E-02
   348 Broy./Diag. 0.10E-02    1.5     0.01742741     -5417.8239011142  2.24E-01
   349 Broy./Diag. 0.10E-02    1.5     0.00763770     -5417.6427799486  1.81E-01
   350 Broy./Diag. 0.10E-02    1.5     0.06922572     -5417.8283249695 -1.86E-01
   351 Broy./Diag. 0.10E-02    1.5     0.14713824     -5418.2893978385 -4.61E-01
   352 Broy./Diag. 0.10E-02    1.5     0.01179233     -5417.9092945527  3.80E-01
   353 Broy./Diag. 0.10E-02    1.5     0.00530735     -5417.8467230369  6.26E-02
   354 Broy./Diag. 0.10E-02    1.5     0.04813756     -5417.8529055344 -6.18E-03
   355 Broy./Diag. 0.10E-02    1.5     0.01894949     -5418.4227510808 -5.70E-01
   356 Broy./Diag. 0.10E-02    1.5     0.01992652     -5418.0509394162  3.72E-01
   357 Broy./Diag. 0.10E-02    1.5     0.01626446     -5418.0004598469  5.05E-02
   358 Broy./Diag. 0.10E-02    1.5     0.00442551     -5418.0931824098 -9.27E-02
   359 Broy./Diag. 0.10E-02    1.5     0.03334813     -5418.1055076519 -1.23E-02
   360 Broy./Diag. 0.10E-02    1.5     0.00954830     -5418.3003034734 -1.95E-01
   361 Broy./Diag. 0.10E-02    1.5     0.02849108     -5418.3930672740 -9.28E-02
   362 Broy./Diag. 0.10E-02    1.5     0.03246351     -5418.1781139197  2.15E-01
   363 Broy./Diag. 0.10E-02    1.5     0.12015450     -5418.1396094981  3.85E-02
