 DBCSR| CPU Multiplication driver                                           XSMM (U)
 DBCSR| Multrec recursion limit                                              512 (U)
 DBCSR| Multiplication stack size                                           1000 (D)
 DBCSR| Maximum elements for images                                    UNLIMITED (U)
 DBCSR| Multiplicative factor virtual images                                   1 (U)
 DBCSR| Use multiplication densification                                       T (D)
 DBCSR| Multiplication size stacks                                             3 (U)
 DBCSR| Use memory pool for CPU allocation                                     F (U)
 DBCSR| Number of 3D layers                                               SINGLE (U)
 DBCSR| Use MPI memory allocation                                              F (U)
 DBCSR| Use RMA algorithm                                                      F (U)
 DBCSR| Use Communication thread                                               T (U)
 DBCSR| Communication thread load                                             87 (D)
 DBCSR| MPI: My process id                                                     0
 DBCSR| MPI: Number of processes                                             128
 DBCSR| OMP: Current number of threads                                         1
 DBCSR| OMP: Max number of threads                                             1
 DBCSR| Split modifier for TAS multiplication algorithm                  1.0E+00 (U)


  **** **** ******  **  PROGRAM STARTED AT               2023-02-15 17:11:37.708
 ***** ** ***  *** **   PROGRAM STARTED ON                             nid006724
 **    ****   ******    PROGRAM STARTED BY                                cahart
 ***** **    ** ** **   PROGRAM PROCESS ID                                 44155
  **** **  *******  **  PROGRAM STARTED IN /mnt/lustre/a2fs-work2/work/e05/e05/c
                                           ahart/postdoc/masters/ni/archer2/slab
                                           /optimise/magnetisation/scf_1e-4_temp
                                           -2000_mos-1000_alpha-0.08_beta-1.5_pe
                                           riodic-xyz/search/0.79_0.8

 CP2K| version string:                 CP2K version 2023.1 (Development Version)
 CP2K| source code revision number:                                  git:964cd58
 CP2K| cp2kflags: omp libint fftw3 libxc elpa parallel scalapack xsmm plumed2 mk
 CP2K|            l
 CP2K| is freely available from                            https://www.cp2k.org/
 CP2K| Program compiled at                          Mon 13 Feb 17:05:14 GMT 2023
 CP2K| Program compiled on                                                  ln01
 CP2K| Program compiled for                                              ARCHER2
 CP2K| Data directory path    /work/e05/e05/cahart/cp2k/cp2k-2023.1/cp2k-2023.1-
 CP2K| Input file name                                                  cp2k.inp

 GLOBAL| Force Environment number                                              1
 GLOBAL| Basis set file name                                        BASIS_MOLOPT
 GLOBAL| Potential file name                                      GTH_POTENTIALS
 GLOBAL| MM Potential file name                                     MM_POTENTIAL
 GLOBAL| Coordinate file name                                      __STD_INPUT__
 GLOBAL| Method name                                                        CP2K
 GLOBAL| Project name                                                    Ni_bulk
 GLOBAL| Run type                                                         ENERGY
 GLOBAL| FFT library                                                       FFTW3
 GLOBAL| Diagonalization library                                            ELPA
 GLOBAL| DGEMM library                                                      BLAS
 GLOBAL| Minimum number of eigenvectors for ELPA usage                        16
 GLOBAL| Orthonormality check for eigenvectors                          DISABLED
 GLOBAL| Matrix multiplication library                                 ScaLAPACK
 GLOBAL| All-to-all communication in single precision                          F
 GLOBAL| FFTs using library dependent lengths                                  F
 GLOBAL| Grid backend                                                       AUTO
 GLOBAL| Global print level                                               MEDIUM
 GLOBAL| MPI I/O enabled                                                       T
 GLOBAL| Total number of message passing processes                           128
 GLOBAL| Number of threads for this process                                    1
 GLOBAL| This output is from process                                           0
 GLOBAL| Stack size for threads created by OpenMP (OMP_STACKSIZE)        default
 GLOBAL| CPU model name                          AMD EPYC 7742 64-Core Processor
 GLOBAL| CPUID                                                              1002

 MEMORY| system memory details [Kb]
 MEMORY|                        rank 0           min           max       average
 MEMORY| MemTotal            263528088     263528088     263528088     263528088
 MEMORY| MemFree             238686740     238686740     238686740     238686740
 MEMORY| Buffers                 24432         24432         24432         24432
 MEMORY| Cached                 656632        656632        656632        656632
 MEMORY| Slab                  1591848       1591848       1591848       1591848
 MEMORY| SReclaimable           107780        107780        107780        107780
 MEMORY| MemLikelyFree       239475584     239475584     239475584     239475584


 *** Fundamental physical constants (SI units) ***

 *** Literature: B. J. Mohr and B. N. Taylor,
 ***             CODATA recommended values of the fundamental physical
 ***             constants: 2006, Web Version 5.1
 ***             http://physics.nist.gov/constants

 Speed of light in vacuum [m/s]                             2.99792458000000E+08
 Magnetic constant or permeability of vacuum [N/A**2]       1.25663706143592E-06
 Electric constant or permittivity of vacuum [F/m]          8.85418781762039E-12
 Planck constant (h) [J*s]                                  6.62606896000000E-34
 Planck constant (h-bar) [J*s]                              1.05457162825177E-34
 Elementary charge [C]                                      1.60217648700000E-19
 Electron mass [kg]                                         9.10938215000000E-31
 Electron g factor [ ]                                     -2.00231930436220E+00
 Proton mass [kg]                                           1.67262163700000E-27
 Fine-structure constant                                    7.29735253760000E-03
 Rydberg constant [1/m]                                     1.09737315685270E+07
 Avogadro constant [1/mol]                                  6.02214179000000E+23
 Boltzmann constant [J/K]                                   1.38065040000000E-23
 Atomic mass unit [kg]                                      1.66053878200000E-27
 Bohr radius [m]                                            5.29177208590000E-11

 *** Conversion factors ***

 [u] -> [a.u.]                                              1.82288848426455E+03
 [Angstrom] -> [Bohr] = [a.u.]                              1.88972613288564E+00
 [a.u.] = [Bohr] -> [Angstrom]                              5.29177208590000E-01
 [a.u.] -> [s]                                              2.41888432650478E-17
 [a.u.] -> [fs]                                             2.41888432650478E-02
 [a.u.] -> [J]                                              4.35974393937059E-18
 [a.u.] -> [N]                                              8.23872205491840E-08
 [a.u.] -> [K]                                              3.15774647902944E+05
 [a.u.] -> [kJ/mol]                                         2.62549961709828E+03
 [a.u.] -> [kcal/mol]                                       6.27509468713739E+02
 [a.u.] -> [Pa]                                             2.94210107994716E+13
 [a.u.] -> [bar]                                            2.94210107994716E+08
 [a.u.] -> [atm]                                            2.90362800883016E+08
 [a.u.] -> [eV]                                             2.72113838565563E+01
 [a.u.] -> [Hz]                                             6.57968392072181E+15
 [a.u.] -> [1/cm] (wave numbers)                            2.19474631370540E+05
 [a.u./Bohr**2] -> [1/cm]                                   5.14048714338585E+03
 

 CELL_TOP| Volume [angstrom^3]:                                       983.249569
 CELL_TOP| Vector a [angstrom     7.012     0.000     0.000   |a| =     7.011596
 CELL_TOP| Vector b [angstrom     0.000     7.012     0.000   |b| =     7.011596
 CELL_TOP| Vector c [angstrom     0.000     0.000    20.000   |c| =    20.000000
 CELL_TOP| Angle (b,c), alpha [degree]:                                90.000000
 CELL_TOP| Angle (a,c), beta  [degree]:                                90.000000
 CELL_TOP| Angle (a,b), gamma [degree]:                                90.000000
 CELL_TOP| Numerically orthorhombic:                                         YES
 CELL_TOP| Periodicity                                                       XYZ

 GENERATE|  Preliminary Number of Bonds generated:                             0
 GENERATE|  Achieved consistency in connectivity generation.

 CELL| Volume [angstrom^3]:                                           983.249569
 CELL| Vector a [angstrom]:       7.012     0.000     0.000   |a| =     7.011596
 CELL| Vector b [angstrom]:       0.000     7.012     0.000   |b| =     7.011596
 CELL| Vector c [angstrom]:       0.000     0.000    20.000   |c| =    20.000000
 CELL| Angle (b,c), alpha [degree]:                                    90.000000
 CELL| Angle (a,c), beta  [degree]:                                    90.000000
 CELL| Angle (a,b), gamma [degree]:                                    90.000000
 CELL| Numerically orthorhombic:                                             YES
 CELL| Periodicity                                                           XYZ

 CELL_REF| Volume [angstrom^3]:                                       983.249569
 CELL_REF| Vector a [angstrom     7.012     0.000     0.000   |a| =     7.011596
 CELL_REF| Vector b [angstrom     0.000     7.012     0.000   |b| =     7.011596
 CELL_REF| Vector c [angstrom     0.000     0.000    20.000   |c| =    20.000000
 CELL_REF| Angle (b,c), alpha [degree]:                                90.000000
 CELL_REF| Angle (a,c), beta  [degree]:                                90.000000
 CELL_REF| Angle (a,b), gamma [degree]:                                90.000000
 CELL_REF| Numerically orthorhombic:                                         YES
 CELL_REF| Periodicity                                                       XYZ

 *** WARNING in cryssym.F:165 :: Symmetry library SPGLIB not available ***


 *******************************************************************************
                                    Kpoints
 *******************************************************************************
 BRILLOUIN| K-point scheme                                        Monkhorst-Pack
 BRILLOUIN| K-Point grid                                             4    4    1
 BRILLOUIN| Accuracy in Symmetry determination                      0.100000E-05
 BRILLOUIN| K-Point point group symmetrization                               OFF
 BRILLOUIN| Wavefunction type                                            COMPLEX
 BRILLOUIN| List of Kpoints [2 Pi/Bohr]                                        8
 BRILLOUIN| Number           Weight            X              Y              Z
 BRILLOUIN|     1           0.12500       -0.37500       -0.37500        0.00000
 BRILLOUIN|     2           0.12500       -0.37500       -0.12500        0.00000
 BRILLOUIN|     3           0.12500       -0.37500        0.12500        0.00000
 BRILLOUIN|     4           0.12500       -0.37500        0.37500        0.00000
 BRILLOUIN|     5           0.12500       -0.12500       -0.37500        0.00000
 BRILLOUIN|     6           0.12500       -0.12500       -0.12500        0.00000
 BRILLOUIN|     7           0.12500       -0.12500        0.12500        0.00000
 BRILLOUIN|     8           0.12500       -0.12500        0.37500        0.00000
 *******************************************************************************

 *******************************************************************************
 *******************************************************************************
 **                                                                           **
 **     #####                         ##              ##                      **
 **    ##   ##            ##          ##              ##                      **
 **   ##     ##                       ##            ######                    **
 **   ##     ##  ##   ##  ##   #####  ##  ##   ####   ##    #####    #####    **
 **   ##     ##  ##   ##  ##  ##      ## ##   ##      ##   ##   ##  ##   ##   **
 **   ##  ## ##  ##   ##  ##  ##      ####     ###    ##   ######   ######    **
 **    ##  ###   ##   ##  ##  ##      ## ##      ##   ##   ##       ##        **
 **     #######   #####   ##   #####  ##  ##  ####    ##    #####   ##        **
 **           ##                                                    ##        **
 **                                                                           **
 **                                                ... make the atoms dance   **
 **                                                                           **
 **            Copyright (C) by CP2K developers group (2000-2023)             **
 **                      J. Chem. Phys. 152, 194103 (2020)                    **
 **                                                                           **
 *******************************************************************************

 *** WARNING in qs_environment.F:1456 :: Number of electrons will be ***
 *** overwritten by NELEC_ALPHA and NELEC_BETA, multiplicity will be ***
 *** ignored.                                                        ***

 Number of electrons should be                                               576
 Sum of NELEC_ALPHA and NELEC_BETA is                                    576.000

 *** WARNING in qs_environment.F:1488 :: NELEC_ALPHA is not an integer, ***
 *** many features will not be supported.                               ***


 *** WARNING in qs_environment.F:1500 :: NELEC_BETA is not an integer, ***
 *** many features will not be supported.                              ***


 *** WARNING in qs_environment.F:1532 :: More ADDED_MOs requested for beta ***
 *** spin than available.                                                  ***


 *** WARNING in qs_environment.F:1548 :: More added MOs requested than     ***
 *** available. The full set of unoccupied MOs will be used. Use           ***
 *** 'ADDED_MOS -1' to always use all available MOs and to get rid of this ***
 *** warning.                                                              ***


 DFT| Spin unrestricted (spin-polarized) Kohn-Sham calculation               UKS
 DFT| Multiplicity                                                             1
 DFT| Number of spin states                                                    2
 DFT| Charge                                                                   0
 DFT| Self-interaction correction (SIC)                                       NO
 DFT| Cutoffs: density                                              1.000000E-10
 DFT|          gradient                                             1.000000E-10
 DFT|          tau                                                  1.000000E-10
 DFT|          cutoff_smoothing_range                               0.000000E+00
 DFT| XC density smoothing                                                  NONE
 DFT| XC derivatives                                                          PW

 FUNCTIONAL| PBE:
 FUNCTIONAL| J.P.Perdew, K.Burke, M.Ernzerhof, Phys. Rev. Letter, vol. 77, n 18,
 FUNCTIONAL|  pp. 3865-3868, (1996){spin polarized}                             

 vdW POTENTIAL|                                                   Pair Potential
 vdW POTENTIAL|          DFT-D3 (Version 3.1)
 vdW POTENTIAL|          Potential Form: S. Grimme et al, JCP 132: 154104 (2010)
 vdW POTENTIAL|          Zero Damping
 vdW POTENTIAL|          Cutoff Radius [Bohr]:                             20.00
 vdW POTENTIAL|          s6 Scaling Factor:                               1.0000
 vdW POTENTIAL|          sr6 Scaling Factor:                              1.2170
 vdW POTENTIAL|          s8 Scaling Factor:                               0.7220
 vdW POTENTIAL|          Cutoff for CN calculation:                   0.1000E-05

 QS| Method:                                                                 GPW
 QS| Density plane wave grid type                        NON-SPHERICAL FULLSPACE
 QS| Number of grid levels:                                                    5
 QS| Density cutoff [a.u.]:                                                300.0
 QS| Multi grid cutoff [a.u.]: 1) grid level                               300.0
 QS|                           2) grid level                               100.0
 QS|                           3) grid level                                33.3
 QS|                           4) grid level                                11.1
 QS|                           5) grid level                                 3.7
 QS| Grid level progression factor:                                          3.0
 QS| Relative density cutoff [a.u.]:                                        30.0
 QS| Interaction thresholds: eps_pgf_orb:                                1.0E-06
 QS|                         eps_filter_matrix:                          0.0E+00
 QS|                         eps_core_charge:                            1.0E-14
 QS|                         eps_rho_gspace:                             1.0E-12
 QS|                         eps_rho_rspace:                             1.0E-12
 QS|                         eps_gvg_rspace:                             1.0E-06
 QS|                         eps_ppl:                                    1.0E-02
 QS|                         eps_ppnl:                                   1.0E-08


 ATOMIC KIND INFORMATION

  1. Atomic kind: Ni_i                                  Number of atoms:      16

     Orbital Basis Set                                        DZVP-MOLOPT-SR-GTH

       Number of orbital shell sets:                                           1
       Number of orbital shells:                                               8
       Number of primitive Cartesian functions:                                6
       Number of Cartesian basis functions:                                   31
       Number of spherical basis functions:                                   26
       Norm type:                                                              2

       Normalised Cartesian orbitals:

                        Set   Shell   Orbital            Exponent    Coefficient

                          1       1    2s               10.077428      -0.684558
                                                         5.847736      -0.844524
                                                         2.494033       1.088856
                                                         0.988355       0.395503
                                                         0.344978       0.010224
                                                         0.099466      -0.003250

                          1       2    3s               10.077428       0.096747
                                                         5.847736       0.162504
                                                         2.494033      -0.297192
                                                         0.988355      -0.319752
                                                         0.344978       0.088318
                                                         0.099466       0.118587

                          1       3    4s               10.077428       0.036437
                                                         5.847736      -0.381480
                                                         2.494033       0.003759
                                                         0.988355      -1.048256
                                                         0.344978       0.855825
                                                         0.099466      -0.176350

                          1       4    3px              10.077428      -3.133913
                                                         5.847736       3.027656
                                                         2.494033       2.353227
                                                         0.988355       0.554184
                                                         0.344978       0.019462
                                                         0.099466      -0.000291
                          1       4    3py              10.077428      -3.133913
                                                         5.847736       3.027656
                                                         2.494033       2.353227
                                                         0.988355       0.554184
                                                         0.344978       0.019462
                                                         0.099466      -0.000291
                          1       4    3pz              10.077428      -3.133913
                                                         5.847736       3.027656
                                                         2.494033       2.353227
                                                         0.988355       0.554184
                                                         0.344978       0.019462
                                                         0.099466      -0.000291

                          1       5    4px              10.077428      -0.112729
                                                         5.847736      -0.114008
                                                         2.494033      -0.347303
                                                         0.988355      -0.110323
                                                         0.344978       0.154096
                                                         0.099466       0.058386
                          1       5    4py              10.077428      -0.112729
                                                         5.847736      -0.114008
                                                         2.494033      -0.347303
                                                         0.988355      -0.110323
                                                         0.344978       0.154096
                                                         0.099466       0.058386
                          1       5    4pz              10.077428      -0.112729
                                                         5.847736      -0.114008
                                                         2.494033      -0.347303
                                                         0.988355      -0.110323
                                                         0.344978       0.154096
                                                         0.099466       0.058386

                          1       6    4dx2             10.077428       8.232726
                                                         5.847736       9.105758
                                                         2.494033       2.849835
                                                         0.988355       0.554319
                                                         0.344978       0.067245
                                                         0.099466       0.001940
                          1       6    4dxy             10.077428      14.259500
                                                         5.847736      15.771636
                                                         2.494033       4.936060
                                                         0.988355       0.960109
                                                         0.344978       0.116472
                                                         0.099466       0.003360
                          1       6    4dxz             10.077428      14.259500
                                                         5.847736      15.771636
                                                         2.494033       4.936060
                                                         0.988355       0.960109
                                                         0.344978       0.116472
                                                         0.099466       0.003360
                          1       6    4dy2             10.077428       8.232726
                                                         5.847736       9.105758
                                                         2.494033       2.849835
                                                         0.988355       0.554319
                                                         0.344978       0.067245
                                                         0.099466       0.001940
                          1       6    4dyz             10.077428      14.259500
                                                         5.847736      15.771636
                                                         2.494033       4.936060
                                                         0.988355       0.960109
                                                         0.344978       0.116472
                                                         0.099466       0.003360
                          1       6    4dz2             10.077428       8.232726
                                                         5.847736       9.105758
                                                         2.494033       2.849835
                                                         0.988355       0.554319
                                                         0.344978       0.067245
                                                         0.099466       0.001940

                          1       7    5dx2             10.077428      -2.715373
                                                         5.847736      -4.020640
                                                         2.494033      -1.397569
                                                         0.988355      -0.076143
                                                         0.344978       0.033435
                                                         0.099466       0.026032
                          1       7    5dxy             10.077428      -4.703164
                                                         5.847736      -6.963952
                                                         2.494033      -2.420661
                                                         0.988355      -0.131883
                                                         0.344978       0.057911
                                                         0.099466       0.045088
                          1       7    5dxz             10.077428      -4.703164
                                                         5.847736      -6.963952
                                                         2.494033      -2.420661
                                                         0.988355      -0.131883
                                                         0.344978       0.057911
                                                         0.099466       0.045088
                          1       7    5dy2             10.077428      -2.715373
                                                         5.847736      -4.020640
                                                         2.494033      -1.397569
                                                         0.988355      -0.076143
                                                         0.344978       0.033435
                                                         0.099466       0.026032
                          1       7    5dyz             10.077428      -4.703164
                                                         5.847736      -6.963952
                                                         2.494033      -2.420661
                                                         0.988355      -0.131883
                                                         0.344978       0.057911
                                                         0.099466       0.045088
                          1       7    5dz2             10.077428      -2.715373
                                                         5.847736      -4.020640
                                                         2.494033      -1.397569
                                                         0.988355      -0.076143
                                                         0.344978       0.033435
                                                         0.099466       0.026032

                          1       8    5fx3             10.077428      -0.467694
                                                         5.847736       0.618100
                                                         2.494033       0.066069
                                                         0.988355       0.262898
                                                         0.344978       0.004720
                                                         0.099466       0.007748
                          1       8    5fx2y            10.077428      -1.045795
                                                         5.847736       1.382114
                                                         2.494033       0.147734
                                                         0.988355       0.587859
                                                         0.344978       0.010555
                                                         0.099466       0.017325
                          1       8    5fx2z            10.077428      -1.045795
                                                         5.847736       1.382114
                                                         2.494033       0.147734
                                                         0.988355       0.587859
                                                         0.344978       0.010555
                                                         0.099466       0.017325
                          1       8    5fxy2            10.077428      -1.045795
                                                         5.847736       1.382114
                                                         2.494033       0.147734
                                                         0.988355       0.587859
                                                         0.344978       0.010555
                                                         0.099466       0.017325
                          1       8    5fxyz            10.077428      -1.811371
                                                         5.847736       2.393892
                                                         2.494033       0.255883
                                                         0.988355       1.018201
                                                         0.344978       0.018282
                                                         0.099466       0.030008
                          1       8    5fxz2            10.077428      -1.045795
                                                         5.847736       1.382114
                                                         2.494033       0.147734
                                                         0.988355       0.587859
                                                         0.344978       0.010555
                                                         0.099466       0.017325
                          1       8    5fy3             10.077428      -0.467694
                                                         5.847736       0.618100
                                                         2.494033       0.066069
                                                         0.988355       0.262898
                                                         0.344978       0.004720
                                                         0.099466       0.007748
                          1       8    5fy2z            10.077428      -1.045795
                                                         5.847736       1.382114
                                                         2.494033       0.147734
                                                         0.988355       0.587859
                                                         0.344978       0.010555
                                                         0.099466       0.017325
                          1       8    5fyz2            10.077428      -1.045795
                                                         5.847736       1.382114
                                                         2.494033       0.147734
                                                         0.988355       0.587859
                                                         0.344978       0.010555
                                                         0.099466       0.017325
                          1       8    5fz3             10.077428      -0.467694
                                                         5.847736       0.618100
                                                         2.494033       0.066069
                                                         0.988355       0.262898
                                                         0.344978       0.004720
                                                         0.099466       0.007748

       Atomic covalent radius [Angstrom]:                                  1.150

       Atomic van der Waals radius [Angstrom]:                             1.630

     GTH Potential information for                                   GTH-PBE-q18

       Description:                       Goedecker-Teter-Hutter pseudopotential
                                           Goedecker et al., PRB 54, 1703 (1996)
                                          Hartwigsen et al., PRB 58, 3641 (1998)
                                                      Krack, TCA 114, 145 (2005)

       Gaussian exponent of the core charge distribution:               4.081633
       Electronic configuration (s p d ...):                           4   6   8

       Parameters of the local part of the GTH pseudopotential:

                          rloc        C1          C2          C3          C4
                        0.350000    2.102166    0.648484

       Parameters of the non-local part of the GTH pseudopotential:

                   l      r(l)      h(i,j,l)

                   0    0.261295    0.622658    9.970227
                                    9.970227  -12.871507
                   1    0.224253  -11.142708   12.429566
                                   12.429566  -14.706861
                   2    0.215348  -12.628146

  2. Atomic kind: Ni_b                                  Number of atoms:      16

     Orbital Basis Set                                        DZVP-MOLOPT-SR-GTH

       Number of orbital shell sets:                                           1
       Number of orbital shells:                                               8
       Number of primitive Cartesian functions:                                6
       Number of Cartesian basis functions:                                   31
       Number of spherical basis functions:                                   26
       Norm type:                                                              2

       Normalised Cartesian orbitals:

                        Set   Shell   Orbital            Exponent    Coefficient

                          1       1    2s               10.077428      -0.684558
                                                         5.847736      -0.844524
                                                         2.494033       1.088856
                                                         0.988355       0.395503
                                                         0.344978       0.010224
                                                         0.099466      -0.003250

                          1       2    3s               10.077428       0.096747
                                                         5.847736       0.162504
                                                         2.494033      -0.297192
                                                         0.988355      -0.319752
                                                         0.344978       0.088318
                                                         0.099466       0.118587

                          1       3    4s               10.077428       0.036437
                                                         5.847736      -0.381480
                                                         2.494033       0.003759
                                                         0.988355      -1.048256
                                                         0.344978       0.855825
                                                         0.099466      -0.176350

                          1       4    3px              10.077428      -3.133913
                                                         5.847736       3.027656
                                                         2.494033       2.353227
                                                         0.988355       0.554184
                                                         0.344978       0.019462
                                                         0.099466      -0.000291
                          1       4    3py              10.077428      -3.133913
                                                         5.847736       3.027656
                                                         2.494033       2.353227
                                                         0.988355       0.554184
                                                         0.344978       0.019462
                                                         0.099466      -0.000291
                          1       4    3pz              10.077428      -3.133913
                                                         5.847736       3.027656
                                                         2.494033       2.353227
                                                         0.988355       0.554184
                                                         0.344978       0.019462
                                                         0.099466      -0.000291

                          1       5    4px              10.077428      -0.112729
                                                         5.847736      -0.114008
                                                         2.494033      -0.347303
                                                         0.988355      -0.110323
                                                         0.344978       0.154096
                                                         0.099466       0.058386
                          1       5    4py              10.077428      -0.112729
                                                         5.847736      -0.114008
                                                         2.494033      -0.347303
                                                         0.988355      -0.110323
                                                         0.344978       0.154096
                                                         0.099466       0.058386
                          1       5    4pz              10.077428      -0.112729
                                                         5.847736      -0.114008
                                                         2.494033      -0.347303
                                                         0.988355      -0.110323
                                                         0.344978       0.154096
                                                         0.099466       0.058386

                          1       6    4dx2             10.077428       8.232726
                                                         5.847736       9.105758
                                                         2.494033       2.849835
                                                         0.988355       0.554319
                                                         0.344978       0.067245
                                                         0.099466       0.001940
                          1       6    4dxy             10.077428      14.259500
                                                         5.847736      15.771636
                                                         2.494033       4.936060
                                                         0.988355       0.960109
                                                         0.344978       0.116472
                                                         0.099466       0.003360
                          1       6    4dxz             10.077428      14.259500
                                                         5.847736      15.771636
                                                         2.494033       4.936060
                                                         0.988355       0.960109
                                                         0.344978       0.116472
                                                         0.099466       0.003360
                          1       6    4dy2             10.077428       8.232726
                                                         5.847736       9.105758
                                                         2.494033       2.849835
                                                         0.988355       0.554319
                                                         0.344978       0.067245
                                                         0.099466       0.001940
                          1       6    4dyz             10.077428      14.259500
                                                         5.847736      15.771636
                                                         2.494033       4.936060
                                                         0.988355       0.960109
                                                         0.344978       0.116472
                                                         0.099466       0.003360
                          1       6    4dz2             10.077428       8.232726
                                                         5.847736       9.105758
                                                         2.494033       2.849835
                                                         0.988355       0.554319
                                                         0.344978       0.067245
                                                         0.099466       0.001940

                          1       7    5dx2             10.077428      -2.715373
                                                         5.847736      -4.020640
                                                         2.494033      -1.397569
                                                         0.988355      -0.076143
                                                         0.344978       0.033435
                                                         0.099466       0.026032
                          1       7    5dxy             10.077428      -4.703164
                                                         5.847736      -6.963952
                                                         2.494033      -2.420661
                                                         0.988355      -0.131883
                                                         0.344978       0.057911
                                                         0.099466       0.045088
                          1       7    5dxz             10.077428      -4.703164
                                                         5.847736      -6.963952
                                                         2.494033      -2.420661
                                                         0.988355      -0.131883
                                                         0.344978       0.057911
                                                         0.099466       0.045088
                          1       7    5dy2             10.077428      -2.715373
                                                         5.847736      -4.020640
                                                         2.494033      -1.397569
                                                         0.988355      -0.076143
                                                         0.344978       0.033435
                                                         0.099466       0.026032
                          1       7    5dyz             10.077428      -4.703164
                                                         5.847736      -6.963952
                                                         2.494033      -2.420661
                                                         0.988355      -0.131883
                                                         0.344978       0.057911
                                                         0.099466       0.045088
                          1       7    5dz2             10.077428      -2.715373
                                                         5.847736      -4.020640
                                                         2.494033      -1.397569
                                                         0.988355      -0.076143
                                                         0.344978       0.033435
                                                         0.099466       0.026032

                          1       8    5fx3             10.077428      -0.467694
                                                         5.847736       0.618100
                                                         2.494033       0.066069
                                                         0.988355       0.262898
                                                         0.344978       0.004720
                                                         0.099466       0.007748
                          1       8    5fx2y            10.077428      -1.045795
                                                         5.847736       1.382114
                                                         2.494033       0.147734
                                                         0.988355       0.587859
                                                         0.344978       0.010555
                                                         0.099466       0.017325
                          1       8    5fx2z            10.077428      -1.045795
                                                         5.847736       1.382114
                                                         2.494033       0.147734
                                                         0.988355       0.587859
                                                         0.344978       0.010555
                                                         0.099466       0.017325
                          1       8    5fxy2            10.077428      -1.045795
                                                         5.847736       1.382114
                                                         2.494033       0.147734
                                                         0.988355       0.587859
                                                         0.344978       0.010555
                                                         0.099466       0.017325
                          1       8    5fxyz            10.077428      -1.811371
                                                         5.847736       2.393892
                                                         2.494033       0.255883
                                                         0.988355       1.018201
                                                         0.344978       0.018282
                                                         0.099466       0.030008
                          1       8    5fxz2            10.077428      -1.045795
                                                         5.847736       1.382114
                                                         2.494033       0.147734
                                                         0.988355       0.587859
                                                         0.344978       0.010555
                                                         0.099466       0.017325
                          1       8    5fy3             10.077428      -0.467694
                                                         5.847736       0.618100
                                                         2.494033       0.066069
                                                         0.988355       0.262898
                                                         0.344978       0.004720
                                                         0.099466       0.007748
                          1       8    5fy2z            10.077428      -1.045795
                                                         5.847736       1.382114
                                                         2.494033       0.147734
                                                         0.988355       0.587859
                                                         0.344978       0.010555
                                                         0.099466       0.017325
                          1       8    5fyz2            10.077428      -1.045795
                                                         5.847736       1.382114
                                                         2.494033       0.147734
                                                         0.988355       0.587859
                                                         0.344978       0.010555
                                                         0.099466       0.017325
                          1       8    5fz3             10.077428      -0.467694
                                                         5.847736       0.618100
                                                         2.494033       0.066069
                                                         0.988355       0.262898
                                                         0.344978       0.004720
                                                         0.099466       0.007748

       Atomic covalent radius [Angstrom]:                                  1.150

       Atomic van der Waals radius [Angstrom]:                             1.630

     GTH Potential information for                                   GTH-PBE-q18

       Description:                       Goedecker-Teter-Hutter pseudopotential
                                           Goedecker et al., PRB 54, 1703 (1996)
                                          Hartwigsen et al., PRB 58, 3641 (1998)
                                                      Krack, TCA 114, 145 (2005)

       Gaussian exponent of the core charge distribution:               4.081633
       Electronic configuration (s p d ...):                           4   6   8

       Parameters of the local part of the GTH pseudopotential:

                          rloc        C1          C2          C3          C4
                        0.350000    2.102166    0.648484

       Parameters of the non-local part of the GTH pseudopotential:

                   l      r(l)      h(i,j,l)

                   0    0.261295    0.622658    9.970227
                                    9.970227  -12.871507
                   1    0.224253  -11.142708   12.429566
                                   12.429566  -14.706861
                   2    0.215348  -12.628146


 MOLECULE KIND INFORMATION


 All atoms are their own molecule, skipping detailed information


 TOTAL NUMBERS AND MAXIMUM NUMBERS

  Total number of            - Atomic kinds:                                   2
                             - Atoms:                                         32
                             - Shell sets:                                    32
                             - Shells:                                       256
                             - Primitive Cartesian functions:                192
                             - Cartesian basis functions:                    992
                             - Spherical basis functions:                    832

  Maximum angular momentum of- Orbital basis functions:                        3
                             - Local part of the GTH pseudopotential:          2
                             - Non-local part of the GTH pseudopotential:      3


 MODULE QUICKSTEP: ATOMIC COORDINATES IN ANGSTROM

   Atom Kind Element         X             Y             Z       Z(eff)     Mass
      1    1 Ni   28      0.876298      0.876298      7.370500  18.0000  58.6934
      2    1 Ni   28      0.876298      4.382298      7.370500  18.0000  58.6934
      3    1 Ni   28      2.629298      2.629298      7.370500  18.0000  58.6934
      4    1 Ni   28      2.629298      6.135298      7.370500  18.0000  58.6934
      5    1 Ni   28      4.382298      0.876298      7.370500  18.0000  58.6934
      6    1 Ni   28      4.382298      4.382298      7.370500  18.0000  58.6934
      7    1 Ni   28      6.135298      2.629298      7.370500  18.0000  58.6934
      8    1 Ni   28      6.135298      6.135298      7.370500  18.0000  58.6934
      9    2 Ni   28      0.876298      2.629298      9.123500  18.0000  58.6934
     10    2 Ni   28      0.876298      6.135298      9.123500  18.0000  58.6934
     11    2 Ni   28      2.629298      0.876298      9.123500  18.0000  58.6934
     12    2 Ni   28      2.629298      4.382298      9.123500  18.0000  58.6934
     13    2 Ni   28      4.382298      2.629298      9.123500  18.0000  58.6934
     14    2 Ni   28      4.382298      6.135298      9.123500  18.0000  58.6934
     15    2 Ni   28      6.135298      0.876298      9.123500  18.0000  58.6934
     16    2 Ni   28      6.135298      4.382298      9.123500  18.0000  58.6934
     17    2 Ni   28      0.876298      0.876298     10.876500  18.0000  58.6934
     18    2 Ni   28      0.876298      4.382298     10.876500  18.0000  58.6934
     19    2 Ni   28      2.629298      2.629298     10.876500  18.0000  58.6934
     20    2 Ni   28      2.629298      6.135298     10.876500  18.0000  58.6934
     21    2 Ni   28      4.382298      0.876298     10.876500  18.0000  58.6934
     22    2 Ni   28      4.382298      4.382298     10.876500  18.0000  58.6934
     23    2 Ni   28      6.135298      2.629298     10.876500  18.0000  58.6934
     24    2 Ni   28      6.135298      6.135298     10.876500  18.0000  58.6934
     25    1 Ni   28      0.876298      2.629298     12.629500  18.0000  58.6934
     26    1 Ni   28      0.876298      6.135298     12.629500  18.0000  58.6934
     27    1 Ni   28      2.629298      0.876298     12.629500  18.0000  58.6934
     28    1 Ni   28      2.629298      4.382298     12.629500  18.0000  58.6934
     29    1 Ni   28      4.382298      2.629298     12.629500  18.0000  58.6934
     30    1 Ni   28      4.382298      6.135298     12.629500  18.0000  58.6934
     31    1 Ni   28      6.135298      0.876298     12.629500  18.0000  58.6934
     32    1 Ni   28      6.135298      4.382298     12.629500  18.0000  58.6934



 SCF PARAMETERS         Density guess:                                    ATOMIC
                        --------------------------------------------------------
                        max_scf:                                             500
                        max_scf_history:                                       0
                        max_diis:                                              4
                        --------------------------------------------------------
                        eps_scf:                                        1.00E-04
                        eps_scf_history:                                0.00E+00
                        eps_diis:                                       1.00E-01
                        eps_eigval:                                     1.00E-05
                        --------------------------------------------------------
                        level_shift [a.u.]:                             0.000000
                        added MOs                                       531  556
                        --------------------------------------------------------
                        Mixing method:                            BROYDEN_MIXING
                                                charge density mixing in g-space
                        --------------------------------------------------------
                        Smear method:                                FERMI_DIRAC
                        Electronic temperature [K]:                       2000.0
                        Electronic temperature [a.u.]:                  6.33E-03
                        Accuracy threshold:                             1.00E-10
                        --------------------------------------------------------
                        No outer SCF

 PW_GRID| Information for grid number                                          1
 PW_GRID| Grid distributed over                                   128 processors
 PW_GRID| Real space group dimensions                                     8   16
 PW_GRID| the grid is blocked:                                               YES
 PW_GRID| Cutoff [a.u.]                                                    300.0
 PW_GRID| spherical cutoff:                                                   NO
 PW_GRID|   Bounds   1            -54      53                Points:         108
 PW_GRID|   Bounds   2            -54      53                Points:         108
 PW_GRID|   Bounds   3           -150     149                Points:         300
 PW_GRID| Volume element (a.u.^3)  0.1896E-02     Volume (a.u.^3)      6635.2971
 PW_GRID| Grid span                                                    FULLSPACE
 PW_GRID|   Distribution                         Average         Max         Min
 PW_GRID|   G-Vectors                            27337.5       28728       25272
 PW_GRID|   G-Rays                                 253.1         266         234
 PW_GRID|   Real Space Points                    27337.5       28728       25272

 PW_GRID| Information for grid number                                          2
 PW_GRID| Number of the reference grid                                         1
 PW_GRID| Grid distributed over                                   128 processors
 PW_GRID| Real space group dimensions                                     8   16
 PW_GRID| the grid is blocked:                                                NO
 PW_GRID| Cutoff [a.u.]                                                    100.0
 PW_GRID| spherical cutoff:                                                   NO
 PW_GRID|   Bounds   1            -30      29                Points:          60
 PW_GRID|   Bounds   2            -30      29                Points:          60
 PW_GRID|   Bounds   3            -90      89                Points:         180
 PW_GRID| Volume element (a.u.^3)  0.1024E-01     Volume (a.u.^3)      6635.2971
 PW_GRID| Grid span                                                    FULLSPACE
 PW_GRID|   Distribution                         Average         Max         Min
 PW_GRID|   G-Vectors                             5062.5       15960           0
 PW_GRID|   G-Rays                                  84.4         266           0
 PW_GRID|   Real Space Points                     5062.5        5760        3780

 PW_GRID| Information for grid number                                          3
 PW_GRID| Number of the reference grid                                         1
 PW_GRID| Grid distributed over                                   128 processors
 PW_GRID| Real space group dimensions                                     8   16
 PW_GRID| the grid is blocked:                                                NO
 PW_GRID| Cutoff [a.u.]                                                     33.3
 PW_GRID| spherical cutoff:                                                   NO
 PW_GRID|   Bounds   1            -18      17                Points:          36
 PW_GRID|   Bounds   2            -18      17                Points:          36
 PW_GRID|   Bounds   3            -50      49                Points:         100
 PW_GRID| Volume element (a.u.^3)  0.5120E-01     Volume (a.u.^3)      6635.2971
 PW_GRID| Grid span                                                    FULLSPACE
 PW_GRID|   Distribution                         Average         Max         Min
 PW_GRID|   G-Vectors                             1012.5        9576           0
 PW_GRID|   G-Rays                                  28.1         266           0
 PW_GRID|   Real Space Points                     1012.5        1500         800

 PW_GRID| Information for grid number                                          4
 PW_GRID| Number of the reference grid                                         1
 PW_GRID| Grid distributed over                                   128 processors
 PW_GRID| Real space group dimensions                                     8   16
 PW_GRID| the grid is blocked:                                                NO
 PW_GRID| Cutoff [a.u.]                                                     11.1
 PW_GRID| spherical cutoff:                                                   NO
 PW_GRID|   Bounds   1            -10       9                Points:          20
 PW_GRID|   Bounds   2            -10       9                Points:          20
 PW_GRID|   Bounds   3            -30      29                Points:          60
 PW_GRID| Volume element (a.u.^3)  0.2765         Volume (a.u.^3)      6635.2971
 PW_GRID| Grid span                                                    FULLSPACE
 PW_GRID|   Distribution                         Average         Max         Min
 PW_GRID|   G-Vectors                              187.5        3800           0
 PW_GRID|   G-Rays                                   9.4         190           0
 PW_GRID|   Real Space Points                      187.5         360         120

 PW_GRID| Information for grid number                                          5
 PW_GRID| Number of the reference grid                                         1
 PW_GRID| Grid distributed over                                   128 processors
 PW_GRID| Real space group dimensions                                     8   16
 PW_GRID| the grid is blocked:                                                NO
 PW_GRID| Cutoff [a.u.]                                                      3.7
 PW_GRID| spherical cutoff:                                                   NO
 PW_GRID|   Bounds   1             -6       5                Points:          12
 PW_GRID|   Bounds   2             -6       5                Points:          12
 PW_GRID|   Bounds   3            -18      17                Points:          36
 PW_GRID| Volume element (a.u.^3)   1.280         Volume (a.u.^3)      6635.2971
 PW_GRID| Grid span                                                    FULLSPACE
 PW_GRID|   Distribution                         Average         Max         Min
 PW_GRID|   G-Vectors                               40.5        1296           0
 PW_GRID|   G-Rays                                   3.4         108           0
 PW_GRID|   Real Space Points                       40.5          72           0

 POISSON| Solver                                                        PERIODIC
 POISSON| Periodicity                                                        XYZ

 RS_GRID| Information for grid number                                          1
 RS_GRID|   Bounds   1            -54      53                Points:         108
 RS_GRID|   Bounds   2            -54      53                Points:         108
 RS_GRID|   Bounds   3           -150     149                Points:         300
 RS_GRID| Real space distribution over                                  8 groups
 RS_GRID| Real space distribution along direction                              2
 RS_GRID| Border size                                                         28
 RS_GRID| Real space distribution over                                 16 groups
 RS_GRID| Real space distribution along direction                              3
 RS_GRID| Border size                                                         28
 RS_GRID|   Distribution                         Average         Max         Min
 RS_GRID|   Planes                                  69.5          70          69
 RS_GRID|   Distribution                         Average         Max         Min
 RS_GRID|   Planes                                  74.8          75          74

 RS_GRID| Information for grid number                                          2
 RS_GRID|   Bounds   1            -30      29                Points:          60
 RS_GRID|   Bounds   2            -30      29                Points:          60
 RS_GRID|   Bounds   3            -90      89                Points:         180
 RS_GRID| Real space fully replicated
 RS_GRID| Group size                                                           1

 RS_GRID| Information for grid number                                          3
 RS_GRID|   Bounds   1            -18      17                Points:          36
 RS_GRID|   Bounds   2            -18      17                Points:          36
 RS_GRID|   Bounds   3            -50      49                Points:         100
 RS_GRID| Real space fully replicated
 RS_GRID| Group size                                                           1

 RS_GRID| Information for grid number                                          4
 RS_GRID|   Bounds   1            -10       9                Points:          20
 RS_GRID|   Bounds   2            -10       9                Points:          20
 RS_GRID|   Bounds   3            -30      29                Points:          60
 RS_GRID| Real space fully replicated
 RS_GRID| Group size                                                           1

 RS_GRID| Information for grid number                                          5
 RS_GRID|   Bounds   1             -6       5                Points:          12
 RS_GRID|   Bounds   2             -6       5                Points:          12
 RS_GRID|   Bounds   3            -18      17                Points:          36
 RS_GRID| Real space fully replicated
 RS_GRID| Group size                                                           1

 Spin 1

 Number of electrons:                                                        300.720
 Number of occupied orbitals:                                                301
 Number of molecular orbitals:                                               832

 Spin 2

 Number of electrons:                                                        275.280
 Number of occupied orbitals:                                                276
 Number of molecular orbitals:                                               832

 Number of orbital functions:                                                832
 Number of independent orbital functions:                                    832

 Extrapolation method: initial_guess

 Atomic guess: The first density matrix is obtained in terms of atomic orbitals
               and electronic configurations assigned to each atomic kind

 Guess for atomic kind: Ni_i

 Electronic structure
    Total number of core electrons                                         10.00
    Total number of valence electrons                                      18.00
    Total number of electrons                                              28.00
    Multiplicity                                                         doublet
    Alpha Electrons
    S   [  1.00  1.00] 1.00  1.00
    P   [  3.00] 3.00
    D      4.40
    Beta Electrons
    S   [  1.00  1.00] 1.00  1.00
    P   [  3.00] 3.00
    D      3.60


 *******************************************************************************
                  Iteration          Convergence                     Energy [au]
 *******************************************************************************
                          1         1.51750                    -167.068932204718
                          2         15.5935                    -156.656530566819
                          3         2.37322                    -168.320625176021
                          4        0.215236                    -168.611142488999
                          5        0.864690E-01                -168.614185977773
                          6        0.204270E-01                -168.614864366588
                          7        0.117629E-02                -168.614962284536
                          8        0.143499E-02                -168.614962241165
                          9        0.165550E-03                -168.614962454733
                         10        0.801651E-03                -168.614962414936
                         11        0.526340E-03                -168.614962440154
                         12        0.114214E-03                -168.614962458210
                         13        0.974554E-04                -168.614962459061
                         14        0.103837E-03                -168.614962459937
                         15        0.922182E-04                -168.614962460311
                         16        0.489415E-04                -168.614962460739
                         17        0.376531E-04                -168.614962461148
                         18        0.319337E-04                -168.614962461185
                         19        0.537275E-04                -168.614962461068
                         20        0.409549E-04                -168.614962461145
                         21        0.226152E-04                -168.614962461237
                         22        0.174462E-04                -168.614962461257
                         23        0.165586E-04                -168.614962461260
                         24        0.160650E-04                -168.614962461262
                         25        0.113583E-04                -168.614962461280
                         26        0.503754E-05                -168.614962461287
                         27        0.239088E-05                -168.614962461289
                         28        0.206656E-05                -168.614962461289
                         29        0.678810E-06                -168.614962461289

 Energy components [Hartree]           Total Energy ::         -168.614962461289
                                        Band Energy ::          -26.570438398031
                                     Kinetic Energy ::           97.308645535822
                                   Potential Energy ::         -265.923607997111
                                      Virial (-V/T) ::            2.732785011371
                                        Core Energy ::         -299.569105195415
                                          XC Energy ::          -16.228812263913
                                     Coulomb Energy ::          147.182954998038
                       Total Pseudopotential Energy ::         -396.964091881334
                       Local Pseudopotential Energy ::         -362.650332264705
                    Nonlocal Pseudopotential Energy ::          -34.313759616629
                                        Confinement ::            0.863411500974

 Orbital energies  State     Spin  L     Occupation   Energy[a.u.]    Energy[eV]

                       1    alpha  0          1.000      -4.174802   -113.602130
                       2    alpha  0          1.000      -0.181779     -4.946449
                       1     beta  0          1.000      -4.138200   -112.606137
                       2     beta  0          1.000      -0.175997     -4.789129

                       1    alpha  1          3.000      -2.580817    -70.227599
                       1     beta  1          3.000      -2.545205    -69.258560

                       1    alpha  2          4.400      -0.328813     -8.947444
                       1     beta  2          3.600      -0.298561     -8.124256


 Total Electron Density at R=0:                                         0.030417

 Guess for atomic kind: Ni_b

 Electronic structure
    Total number of core electrons                                         10.00
    Total number of valence electrons                                      18.00
    Total number of electrons                                              28.00
    Multiplicity                                                         doublet
    Alpha Electrons
    S   [  1.00  1.00] 1.00  1.00
    P   [  3.00] 3.00
    D      4.39
    Beta Electrons
    S   [  1.00  1.00] 1.00  1.00
    P   [  3.00] 3.00
    D      3.60


 *******************************************************************************
                  Iteration          Convergence                     Energy [au]
 *******************************************************************************
                          1         1.51748                    -167.068772396301
                          2         15.5732                    -156.655060163032
                          3         2.36934                    -168.320490843656
                          4        0.214394                    -168.611011291272
                          5        0.859709E-01                -168.614046790386
                          6        0.201133E-01                -168.614716612115
                          7        0.131456E-02                -168.614811929405
                          8        0.159215E-02                -168.614811871344
                          9        0.152331E-03                -168.614812143746
                         10        0.911004E-03                -168.614812090461
                         11        0.562894E-03                -168.614812125775
                         12        0.112714E-03                -168.614812145817
                         13        0.968329E-04                -168.614812146717
                         14        0.106044E-03                -168.614812147741
                         15        0.954440E-04                -168.614812148063
                         16        0.472049E-04                -168.614812148512
                         17        0.430240E-04                -168.614812148966
                         18        0.336825E-04                -168.614812148998
                         19        0.587558E-04                -168.614812148849
                         20        0.452515E-04                -168.614812148938
                         21        0.251532E-04                -168.614812149046
                         22        0.159583E-04                -168.614812149083
                         23        0.169197E-04                -168.614812149080
                         24        0.165480E-04                -168.614812149082
                         25        0.115099E-04                -168.614812149102
                         26        0.491307E-05                -168.614812149109
                         27        0.225972E-05                -168.614812149110
                         28        0.203853E-05                -168.614812149111
                         29        0.568363E-06                -168.614812149112

 Energy components [Hartree]           Total Energy ::         -168.614812149112
                                        Band Energy ::          -26.570367492060
                                     Kinetic Energy ::           97.308442466252
                                   Potential Energy ::         -265.923254615364
                                      Virial (-V/T) ::            2.732787082761
                                        Core Energy ::         -299.568986502616
                                          XC Energy ::          -16.228640281017
                                     Coulomb Energy ::          147.182814634520
                       Total Pseudopotential Energy ::         -396.963770096987
                       Local Pseudopotential Energy ::         -362.650116974224
                    Nonlocal Pseudopotential Energy ::          -34.313653122762
                                        Confinement ::            0.863411281195

 Orbital energies  State     Spin  L     Occupation   Energy[a.u.]    Energy[eV]

                       1    alpha  0          1.000      -4.174589   -113.596347
                       2    alpha  0          1.000      -0.181744     -4.945505
                       1     beta  0          1.000      -4.138445   -112.612803
                       2     beta  0          1.000      -0.176035     -4.790153

                       1    alpha  1          3.000      -2.580610    -70.221972
                       1     beta  1          3.000      -2.545444    -69.265045

                       1    alpha  2          4.395      -0.328636     -8.942639
                       1     beta  2          3.605      -0.298762     -8.129739


 Total Electron Density at R=0:                                         0.030418

 Spin 1
 Re-scaling the density matrix to get the right number of electrons for spin 1
                  # Electrons              Trace(P)               Scaling factor
                        300.720             300.720                        1.000

 Spin 2
 Re-scaling the density matrix to get the right number of electrons for spin 2
                  # Electrons              Trace(P)               Scaling factor
                        275.280             275.280                        1.000


 SCF WAVEFUNCTION OPTIMIZATION

  Step     Update method      Time    Convergence         Total energy    Change
  ------------------------------------------------------------------------------
     1 NoMix/Diag. 0.80E-01    1.5     0.87229885     -5426.5237479153 -5.43E+03
     2 Broy./Diag. 0.80E-01    1.5     0.01543691     -5317.8235517697  1.09E+02
     3 Broy./Diag. 0.80E-01    1.5     0.05304506     -5353.8212459568 -3.60E+01
     4 Broy./Diag. 0.80E-01    1.5     0.00321598     -5417.2110860880 -6.34E+01
     5 Broy./Diag. 0.80E-01    1.5     0.02559782     -5414.0766402642  3.13E+00
     6 Broy./Diag. 0.80E-01    1.5     0.00239870     -5418.4511617046 -4.37E+00
     7 Broy./Diag. 0.80E-01    1.5     0.01467694     -5416.7800052650  1.67E+00
     8 Broy./Diag. 0.80E-01    1.5     0.00415338     -5418.9171045671 -2.14E+00
     9 Broy./Diag. 0.80E-01    1.5     0.00426964     -5416.9128855812  2.00E+00
[...]
   117 Broy./Diag. 0.80E-01    1.5     0.00023581     -5417.7838533046 -3.01E-02
   118 Broy./Diag. 0.80E-01    1.5     0.00474681     -5417.7844656252 -6.12E-04
   119 Broy./Diag. 0.80E-01    1.5     0.00612567     -5417.7383444282  4.61E-02
   120 Broy./Diag. 0.80E-01    1.5     0.01184741     -5417.8148440166 -7.65E-02
   121 Broy./Diag. 0.80E-01    1.5     0.00096805     -5417.8037867363  1.11E-02
   122 Broy./Diag. 0.80E-01    1.5     0.00159944     -5417.7997857347  4.00E-03
   123 Broy./Diag. 0.80E-01    1.5     0.00505463     -5417.8034640294 -3.68E-03
   124 Broy./Diag. 0.80E-01    1.5     0.00273297     -5417.8183988420 -1.49E-02
   125 Broy./Diag. 0.80E-01    1.5     0.00311294     -5417.7986462623  1.98E-02
   126 Broy./Diag. 0.80E-01    1.5     0.00302089     -5417.7780027299  2.06E-02
   127 Broy./Diag. 0.80E-01    1.5     0.00250410     -5417.8238528369 -4.59E-02
   128 Broy./Diag. 0.80E-01    1.5     0.00653037     -5417.8221341731  1.72E-03
   129 Broy./Diag. 0.80E-01    1.5     0.00302085     -5417.8339471376 -1.18E-02
   130 Broy./Diag. 0.80E-01    1.5     0.00559244     -5417.8526827218 -1.87E-02
   131 Broy./Diag. 0.80E-01    1.5     0.00218458     -5417.8079876403  4.47E-02
   132 Broy./Diag. 0.80E-01    1.5     0.00570659     -5417.8292397681 -2.13E-02
   133 Broy./Diag. 0.80E-01    1.5     0.00194770     -5417.8234747118  5.77E-03
   134 Broy./Diag. 0.80E-01    1.5     0.00373020     -5417.8073981119  1.61E-02
   135 Broy./Diag. 0.80E-01    1.5     0.00705567     -5417.7745768532  3.28E-02
   136 Broy./Diag. 0.80E-01    1.5     0.00099103     -5417.7838468796 -9.27E-03
   137 Broy./Diag. 0.80E-01    1.5     0.00118994     -5417.7691019451  1.47E-02
   138 Broy./Diag. 0.80E-01    1.5     0.00038919     -5417.7982502695 -2.91E-02
   139 Broy./Diag. 0.80E-01    1.5     0.00205328     -5417.8025918824 -4.34E-03
   140 Broy./Diag. 0.80E-01    1.5     0.00193058     -5417.8150629630 -1.25E-02
   141 Broy./Diag. 0.80E-01    1.5     0.00369848     -5417.8098652079  5.20E-03
   142 Broy./Diag. 0.80E-01    1.5     0.00513382     -5417.8128811020 -3.02E-03
   143 Broy./Diag. 0.80E-01    1.5     0.00259052     -5417.7905395968  2.23E-02
   144 Broy./Diag. 0.80E-01    1.5     0.00190798     -5417.8343556047 -4.38E-02
   145 Broy./Diag. 0.80E-01    1.5     0.00597269     -5417.8600247114 -2.57E-02
   146 Broy./Diag. 0.80E-01    1.5     0.00126384     -5417.8216761882  3.83E-02
   147 Broy./Diag. 0.80E-01    1.5     0.00111335     -5417.8021772337  1.95E-02
   148 Broy./Diag. 0.80E-01    1.5     0.00353639     -5417.8113974081 -9.22E-03
   149 Broy./Diag. 0.80E-01    1.5     0.00244011     -5417.8079356784  3.46E-03
   150 Broy./Diag. 0.80E-01    1.5     0.00176996     -5417.8740000748 -6.61E-02
   151 Broy./Diag. 0.80E-01    1.5     0.00320406     -5417.8768341264 -2.83E-03
   152 Broy./Diag. 0.80E-01    1.5     0.00424409     -5417.8845639971 -7.73E-03
   153 Broy./Diag. 0.80E-01    1.5     0.00724930     -5417.8796836246  4.88E-03
   154 Broy./Diag. 0.80E-01    1.5     0.00496835     -5417.9652302759 -8.55E-02
   155 Broy./Diag. 0.80E-01    1.5     0.00106405     -5417.9303486435  3.49E-02
   156 Broy./Diag. 0.80E-01    1.5     0.00190735     -5417.9132550390  1.71E-02
   157 Broy./Diag. 0.80E-01    1.5     0.00147263     -5417.9031126250  1.01E-02
   158 Broy./Diag. 0.80E-01    1.5     0.00341663     -5417.8855561833  1.76E-02
   159 Broy./Diag. 0.80E-01    1.5     0.00228184     -5417.9357080054 -5.02E-02
   160 Broy./Diag. 0.80E-01    1.5     0.00201190     -5417.8498927577  8.58E-02
   161 Broy./Diag. 0.80E-01    1.5     0.00398381     -5417.7882966466  6.16E-02
   162 Broy./Diag. 0.80E-01    1.5     0.00066311     -5417.6962014621  9.21E-02
   163 Broy./Diag. 0.80E-01    1.5     0.00409800     -5417.6478855274  4.83E-02
   164 Broy./Diag. 0.80E-01    1.5     0.00343607     -5417.8730949448 -2.25E-01
   165 Broy./Diag. 0.80E-01    1.5     0.00301510     -5417.8704025466  2.69E-03
   166 Broy./Diag. 0.80E-01    1.5     0.00141122     -5417.8210093632  4.94E-02
   167 Broy./Diag. 0.80E-01    1.5     0.00235156     -5417.8368898345 -1.59E-02
   168 Broy./Diag. 0.80E-01    1.5     0.00225567     -5417.9662962520 -1.29E-01
   169 Broy./Diag. 0.80E-01    1.5     0.00168258     -5418.0042838532 -3.80E-02
   170 Broy./Diag. 0.80E-01    1.5     0.00294198     -5417.9555782778  4.87E-02
   171 Broy./Diag. 0.80E-01    1.5     0.00308642     -5417.9394437629  1.61E-02
   172 Broy./Diag. 0.80E-01    1.5     0.00287997     -5417.9288902739  1.06E-02
   173 Broy./Diag. 0.80E-01    1.5     0.00196976     -5417.8596578149  6.92E-02
   174 Broy./Diag. 0.80E-01    1.5     0.00170996     -5417.8401294347  1.95E-02
   175 Broy./Diag. 0.80E-01    1.5     0.00385903     -5417.7983820397  4.17E-02
   176 Broy./Diag. 0.80E-01    1.5     0.00158843     -5417.7534613499  4.49E-02
   177 Broy./Diag. 0.80E-01    1.5     0.00066446     -5417.7668337504 -1.34E-02
   178 Broy./Diag. 0.80E-01    1.5     0.00224914     -5417.7567080143  1.01E-02
   179 Broy./Diag. 0.80E-01    1.5     0.00032812     -5417.7733188689 -1.66E-02
   180 Broy./Diag. 0.80E-01    1.5     0.00180945     -5417.7785777988 -5.26E-03
   181 Broy./Diag. 0.80E-01    1.5     0.00075613     -5417.7993801470 -2.08E-02
   182 Broy./Diag. 0.80E-01    1.5     0.00270586     -5417.8119074762 -1.25E-02
   183 Broy./Diag. 0.80E-01    1.5     0.00206438     -5417.7825062938  2.94E-02
   184 Broy./Diag. 0.80E-01    1.5     0.00255417     -5417.7735904855  8.92E-03
   185 Broy./Diag. 0.80E-01    1.5     0.00396829     -5417.7633251006  1.03E-02
   186 Broy./Diag. 0.80E-01    1.5     0.00457838     -5417.7170841524  4.62E-02
   187 Broy./Diag. 0.80E-01    1.5     0.00182040     -5417.7366142140 -1.95E-02
   188 Broy./Diag. 0.80E-01    1.5     0.00216666     -5417.7703776525 -3.38E-02
   189 Broy./Diag. 0.80E-01    1.5     0.00178729     -5417.7393833769  3.10E-02
   190 Broy./Diag. 0.80E-01    1.5     0.00418549     -5417.6606559474  7.87E-02
   191 Broy./Diag. 0.80E-01    1.5     0.00692117     -5417.6983902878 -3.77E-02
   192 Broy./Diag. 0.80E-01    1.5     0.00018747     -5417.6755220507  2.29E-02
   193 Broy./Diag. 0.80E-01    1.5     0.00489820     -5417.6838837833 -8.36E-03
   194 Broy./Diag. 0.80E-01    1.5     0.00155376     -5417.6996659675 -1.58E-02
   195 Broy./Diag. 0.80E-01    1.5     0.00477424     -5417.6546892415  4.50E-02
   196 Broy./Diag. 0.80E-01    1.5     0.00059061     -5417.6562886945 -1.60E-03
   197 Broy./Diag. 0.80E-01    1.5     0.00086509     -5417.6464707387  9.82E-03
   198 Broy./Diag. 0.80E-01    1.5     0.00422312     -5417.6412441503  5.23E-03
   199 Broy./Diag. 0.80E-01    1.5     0.00575417     -5417.6173013922  2.39E-02
   200 Broy./Diag. 0.80E-01    1.6     0.00790468     -5417.5911372389  2.62E-02
   201 Broy./Diag. 0.80E-01    1.5     0.00785297     -5417.6278390695 -3.67E-02
   202 Broy./Diag. 0.80E-01    1.5     0.00504405     -5417.7190741915 -9.12E-02
   203 Broy./Diag. 0.80E-01    1.5     0.00403723     -5417.6838794456  3.52E-02
   204 Broy./Diag. 0.80E-01    1.5     0.00158023     -5417.6995600793 -1.57E-02
   205 Broy./Diag. 0.80E-01    1.5     0.00273330     -5417.7321123277 -3.26E-02
   206 Broy./Diag. 0.80E-01    1.5     0.00193908     -5417.7325639120 -4.52E-04
   207 Broy./Diag. 0.80E-01    1.5     0.00319338     -5417.6814578418  5.11E-02
   208 Broy./Diag. 0.80E-01    1.5     0.01265000     -5417.7206297901 -3.92E-02
   209 Broy./Diag. 0.80E-01    1.5     0.00238061     -5417.7556027318 -3.50E-02
   210 Broy./Diag. 0.80E-01    1.5     0.00312526     -5417.8855564636 -1.30E-01
   211 Broy./Diag. 0.80E-01    1.5     0.00677783     -5417.8626666791  2.29E-02
   212 Broy./Diag. 0.80E-01    1.5     0.00391143     -5417.7535839518  1.09E-01
   213 Broy./Diag. 0.80E-01    1.5     0.00190183     -5417.8488802651 -9.53E-02
   214 Broy./Diag. 0.80E-01    1.5     0.01170201     -5417.9339940671 -8.51E-02
   215 Broy./Diag. 0.80E-01    1.5     0.00322233     -5417.8206129246  1.13E-01
   216 Broy./Diag. 0.80E-01    1.5     0.00914933     -5417.7968927980  2.37E-02
   217 Broy./Diag. 0.80E-01    1.5     0.00431992     -5417.9168093544 -1.20E-01
   218 Broy./Diag. 0.80E-01    1.5     0.00325268     -5417.9063334496  1.05E-02
   219 Broy./Diag. 0.80E-01    1.5     0.00292217     -5417.9930704305 -8.67E-02
   220 Broy./Diag. 0.80E-01    1.5     0.00726821     -5417.7758307137  2.17E-01
   221 Broy./Diag. 0.80E-01    1.5     0.01272459     -5417.7234796367  5.24E-02
   222 Broy./Diag. 0.80E-01    1.5     0.00323791     -5417.9087596356 -1.85E-01
   223 Broy./Diag. 0.80E-01    1.5     0.00622784     -5417.8900640394  1.87E-02
   224 Broy./Diag. 0.80E-01    1.5     0.00253779     -5417.8592884846  3.08E-02
   225 Broy./Diag. 0.80E-01    1.5     0.00769117     -5417.8757586659 -1.65E-02
   226 Broy./Diag. 0.80E-01    1.5     0.01026159     -5417.8385157344  3.72E-02
   227 Broy./Diag. 0.80E-01    1.5     0.00607125     -5417.7507793334  8.77E-02
   228 Broy./Diag. 0.80E-01    1.5     0.00595242     -5417.7896112225 -3.88E-02
   229 Broy./Diag. 0.80E-01    1.5     0.00367319     -5417.7575667729  3.20E-02
   230 Broy./Diag. 0.80E-01    1.5     0.00157085     -5417.7981498260 -4.06E-02
   231 Broy./Diag. 0.80E-01    1.5     0.00195837     -5417.7616189608  3.65E-02
   232 Broy./Diag. 0.80E-01    1.5     0.00157784     -5417.8375014779 -7.59E-02
   233 Broy./Diag. 0.80E-01    1.5     0.01364102     -5417.7852102536  5.23E-02
   234 Broy./Diag. 0.80E-01    1.5     0.01024074     -5417.8555090632 -7.03E-02
   235 Broy./Diag. 0.80E-01    1.5     0.00730923     -5417.7763656156  7.91E-02
   236 Broy./Diag. 0.80E-01    1.5     0.01723418     -5417.8721731398 -9.58E-02
   237 Broy./Diag. 0.80E-01    1.5     0.00472212     -5417.6915854410  1.81E-01
   238 Broy./Diag. 0.80E-01    1.5     0.01629194     -5417.7298059909 -3.82E-02
   239 Broy./Diag. 0.80E-01    1.5     0.00190665     -5417.7173937770  1.24E-02
   240 Broy./Diag. 0.80E-01    1.5     0.02074648     -5417.6844562029  3.29E-02
   241 Broy./Diag. 0.80E-01    1.5     0.00135956     -5417.8193420995 -1.35E-01
   242 Broy./Diag. 0.80E-01    1.5     0.00360523     -5417.7941447964  2.52E-02
   243 Broy./Diag. 0.80E-01    1.5     0.00256404     -5417.7797613363  1.44E-02
   244 Broy./Diag. 0.80E-01    1.5     0.01091656     -5417.7254616923  5.43E-02
   245 Broy./Diag. 0.80E-01    1.5     0.00754629     -5417.7189210827  6.54E-03
   246 Broy./Diag. 0.80E-01    1.5     0.00307530     -5417.5912233882  1.28E-01
   247 Broy./Diag. 0.80E-01    1.5     0.00662637     -5417.6457244218 -5.45E-02
   248 Broy./Diag. 0.80E-01    1.5     0.00155666     -5417.7200380970 -7.43E-02
   249 Broy./Diag. 0.80E-01    1.5     0.00765233     -5417.6915484108  2.85E-02
   250 Broy./Diag. 0.80E-01    1.5     0.00210032     -5417.7082744715 -1.67E-02
   251 Broy./Diag. 0.80E-01    1.5     0.00299810     -5417.7439406188 -3.57E-02
   252 Broy./Diag. 0.80E-01    1.5     0.00336115     -5417.7192836249  2.47E-02
   253 Broy./Diag. 0.80E-01    1.5     0.00126014     -5417.8043895579 -8.51E-02
   254 Broy./Diag. 0.80E-01    1.5     0.00444297     -5417.8420619552 -3.77E-02
   255 Broy./Diag. 0.80E-01    1.5     0.00783909     -5417.8543269065 -1.23E-02
   256 Broy./Diag. 0.80E-01    1.5     0.00566654     -5417.8377474842  1.66E-02
   257 Broy./Diag. 0.80E-01    1.5     0.00238337     -5417.9709062613 -1.33E-01
   258 Broy./Diag. 0.80E-01    1.5     0.00615658     -5417.8458145625  1.25E-01
   259 Broy./Diag. 0.80E-01    1.5     0.02690691     -5417.9104241228 -6.46E-02
   260 Broy./Diag. 0.80E-01    1.5     0.00363293     -5417.7886692946  1.22E-01
   261 Broy./Diag. 0.80E-01    1.5     0.01172385     -5417.5561508345  2.33E-01
   262 Broy./Diag. 0.80E-01    1.5     0.00818304     -5417.5286993903  2.75E-02
   263 Broy./Diag. 0.80E-01    1.5     0.01911664     -5417.4578016926  7.09E-02
   264 Broy./Diag. 0.80E-01    1.5     0.00233458     -5417.8750821535 -4.17E-01
   265 Broy./Diag. 0.80E-01    1.5     0.00659048     -5417.7939647217  8.11E-02
   266 Broy./Diag. 0.80E-01    1.5     0.00965885     -5417.8095645306 -1.56E-02
   267 Broy./Diag. 0.80E-01    1.5     0.00478379     -5417.7841868121  2.54E-02
   268 Broy./Diag. 0.80E-01    1.5     0.00253226     -5417.8792483392 -9.51E-02
   269 Broy./Diag. 0.80E-01    1.5     0.00074765     -5417.8313423664  4.79E-02
   270 Broy./Diag. 0.80E-01    1.5     0.00234459     -5417.8533646087 -2.20E-02
   271 Broy./Diag. 0.80E-01    1.5     0.00224765     -5417.8130556626  4.03E-02
   272 Broy./Diag. 0.80E-01    1.5     0.00425660     -5417.8032281787  9.83E-03
   273 Broy./Diag. 0.80E-01    1.5     0.00056013     -5417.9311752605 -1.28E-01
   274 Broy./Diag. 0.80E-01    1.5     0.00297901     -5417.9670794840 -3.59E-02
   275 Broy./Diag. 0.80E-01    1.5     0.00128191     -5417.9613161538  5.76E-03
   276 Broy./Diag. 0.80E-01    1.5     0.01124238     -5418.0468449613 -8.55E-02
   277 Broy./Diag. 0.80E-01    1.5     0.00188484     -5417.9395894542  1.07E-01
   278 Broy./Diag. 0.80E-01    1.5     0.00282963     -5417.9356261279  3.96E-03
   279 Broy./Diag. 0.80E-01    1.5     0.00368188     -5418.1377715869 -2.02E-01
   280 Broy./Diag. 0.80E-01    1.5     0.00195399     -5417.9971804177  1.41E-01
   281 Broy./Diag. 0.80E-01    1.5     0.00076065     -5417.6855543143  3.12E-01
   282 Broy./Diag. 0.80E-01    1.5     0.00318998     -5417.6423344880  4.32E-02
   283 Broy./Diag. 0.80E-01    1.5     0.00234801     -5417.7711712189 -1.29E-01
   284 Broy./Diag. 0.80E-01    1.5     0.00429566     -5417.7024654132  6.87E-02
   285 Broy./Diag. 0.80E-01    1.5     0.00125334     -5417.6107091669  9.18E-02
   286 Broy./Diag. 0.80E-01    1.5     0.00872031     -5417.6834795427 -7.28E-02
   287 Broy./Diag. 0.80E-01    1.5     0.00223156     -5417.7503106141 -6.68E-02
   288 Broy./Diag. 0.80E-01    1.5     0.00395142     -5417.6114673970  1.39E-01
   289 Broy./Diag. 0.80E-01    1.5     0.00586466     -5417.7270124352 -1.16E-01
   290 Broy./Diag. 0.80E-01    1.5     0.00373659     -5417.8096247976 -8.26E-02
   291 Broy./Diag. 0.80E-01    1.5     0.00181771     -5417.8250735077 -1.54E-02
   292 Broy./Diag. 0.80E-01    1.5     0.00279457     -5417.8060059401  1.91E-02
   293 Broy./Diag. 0.80E-01    1.5     0.00195609     -5417.8085728904 -2.57E-03
   294 Broy./Diag. 0.80E-01    1.5     0.00405938     -5417.7723195857  3.63E-02
   295 Broy./Diag. 0.80E-01    1.5     0.00315044     -5417.8108575793 -3.85E-02
   296 Broy./Diag. 0.80E-01    1.5     0.00814359     -5417.8260287779 -1.52E-02
   297 Broy./Diag. 0.80E-01    1.5     0.00170239     -5417.7880908868  3.79E-02
   298 Broy./Diag. 0.80E-01    1.5     0.00373190     -5417.7883382071 -2.47E-04
   299 Broy./Diag. 0.80E-01    1.5     0.00332435     -5417.7678607111  2.05E-02
   300 Broy./Diag. 0.80E-01    1.5     0.00289087     -5417.7718057449 -3.95E-03
   301 Broy./Diag. 0.80E-01    1.5     0.00929481     -5417.7653283878  6.48E-03
   302 Broy./Diag. 0.80E-01    1.5     0.01574197     -5417.7381499935  2.72E-02
   303 Broy./Diag. 0.80E-01    1.5     0.00269608     -5417.7547074002 -1.66E-02
   304 Broy./Diag. 0.80E-01    1.5     0.00100360     -5417.7201201771  3.46E-02
   305 Broy./Diag. 0.80E-01    1.5     0.00066739     -5417.7131573783  6.96E-03
   306 Broy./Diag. 0.80E-01    1.5     0.00610952     -5417.7059126679  7.24E-03
   307 Broy./Diag. 0.80E-01    1.5     0.00300853     -5417.7470601429 -4.11E-02
   308 Broy./Diag. 0.80E-01    1.5     0.00261245     -5417.7184392044  2.86E-02
   309 Broy./Diag. 0.80E-01    1.5     0.00366990     -5417.6921598220  2.63E-02
   310 Broy./Diag. 0.80E-01    1.5     0.01673593     -5417.6852581016  6.90E-03
   311 Broy./Diag. 0.80E-01    1.5     0.02088387     -5417.5886692031  9.66E-02
   312 Broy./Diag. 0.80E-01    1.5     0.00896510     -5417.6502574235 -6.16E-02
   313 Broy./Diag. 0.80E-01    1.5     0.00222299     -5417.6734552809 -2.32E-02
   314 Broy./Diag. 0.80E-01    1.5     0.00238513     -5417.7227712765 -4.93E-02
   315 Broy./Diag. 0.80E-01    1.5     0.00148970     -5417.7686894188 -4.59E-02
   316 Broy./Diag. 0.80E-01    1.5     0.00383806     -5417.7725550551 -3.87E-03
   317 Broy./Diag. 0.80E-01    1.5     0.00086746     -5417.7797792055 -7.22E-03
   318 Broy./Diag. 0.80E-01    1.5     0.00146814     -5417.7718406090  7.94E-03
   319 Broy./Diag. 0.80E-01    1.5     0.00862399     -5417.7583032376  1.35E-02
   320 Broy./Diag. 0.80E-01    1.5     0.00092216     -5417.7261189947  3.22E-02
   321 Broy./Diag. 0.80E-01    1.5     0.00160086     -5417.7198729201  6.25E-03
   322 Broy./Diag. 0.80E-01    1.5     0.00444073     -5417.7053471231  1.45E-02
   323 Broy./Diag. 0.80E-01    1.5     0.00243175     -5417.7035839597  1.76E-03
   324 Broy./Diag. 0.80E-01    1.5     0.00253235     -5417.7057317574 -2.15E-03
   325 Broy./Diag. 0.80E-01    1.5     0.00496337     -5417.7239167697 -1.82E-02
   326 Broy./Diag. 0.80E-01    1.5     0.00096447     -5417.7361877133 -1.23E-02
   327 Broy./Diag. 0.80E-01    1.5     0.00310111     -5417.7181615627  1.80E-02
   328 Broy./Diag. 0.80E-01    1.5     0.00241693     -5417.7084241619  9.74E-03
   329 Broy./Diag. 0.80E-01    1.5     0.00354266     -5417.7155182130 -7.09E-03
   330 Broy./Diag. 0.80E-01    1.5     0.00157357     -5417.7041850241  1.13E-02
   331 Broy./Diag. 0.80E-01    1.5     0.00139347     -5417.7006038448  3.58E-03
   332 Broy./Diag. 0.80E-01    1.5     0.00101602     -5417.7150647371 -1.45E-02
   333 Broy./Diag. 0.80E-01    1.5     0.00202542     -5417.7229509160 -7.89E-03
   334 Broy./Diag. 0.80E-01    1.5     0.00240817     -5417.7290068194 -6.06E-03
   335 Broy./Diag. 0.80E-01    1.5     0.00218182     -5417.7715046970 -4.25E-02
   336 Broy./Diag. 0.80E-01    1.5     0.00152267     -5417.8025393520 -3.10E-02
   337 Broy./Diag. 0.80E-01    1.5     0.00083479     -5417.7953337562  7.21E-03
   338 Broy./Diag. 0.80E-01    1.5     0.00116204     -5417.7955358416 -2.02E-04
   339 Broy./Diag. 0.80E-01    1.5     0.00306959     -5417.8099524408 -1.44E-02
   340 Broy./Diag. 0.80E-01    1.5     0.00239029     -5417.8002839629  9.67E-03
   341 Broy./Diag. 0.80E-01    1.5     0.00118659     -5417.7716816077  2.86E-02
   342 Broy./Diag. 0.80E-01    1.5     0.00319833     -5417.7679378048  3.74E-03
   343 Broy./Diag. 0.80E-01    1.5     0.00637880     -5417.7353740894  3.26E-02
   344 Broy./Diag. 0.80E-01    1.5     0.00806542     -5417.7668713608 -3.15E-02
   345 Broy./Diag. 0.80E-01    1.5     0.02006936     -5417.7790040882 -1.21E-02
   346 Broy./Diag. 0.80E-01    1.5     0.01255581     -5417.7619316574  1.71E-02
   347 Broy./Diag. 0.80E-01    1.5     0.00593238     -5417.7475014434  1.44E-02
   348 Broy./Diag. 0.80E-01    1.5     0.00418249     -5417.7551886914 -7.69E-03
   349 Broy./Diag. 0.80E-01    1.5     0.00512234     -5417.7682326384 -1.30E-02
   350 Broy./Diag. 0.80E-01    1.5     0.00163275     -5417.7584974727  9.74E-03
   351 Broy./Diag. 0.80E-01    1.5     0.00336233     -5417.7615684395 -3.07E-03
   352 Broy./Diag. 0.80E-01    1.5     0.00241903     -5417.7664690926 -4.90E-03
   353 Broy./Diag. 0.80E-01    1.5     0.00555803     -5417.7768628903 -1.04E-02
   354 Broy./Diag. 0.80E-01    1.5     0.00151468     -5417.7566176157  2.02E-02
   355 Broy./Diag. 0.80E-01    1.5     0.00529979     -5417.7464031703  1.02E-02
   356 Broy./Diag. 0.80E-01    1.5     0.00441383     -5417.7567018542 -1.03E-02
   357 Broy./Diag. 0.80E-01    1.5     0.00264902     -5417.7493229671  7.38E-03
   358 Broy./Diag. 0.80E-01    1.5     0.00514262     -5417.7512427511 -1.92E-03
   359 Broy./Diag. 0.80E-01    1.5     0.00513662     -5417.7503294929  9.13E-04
   360 Broy./Diag. 0.80E-01    1.5     0.00204686     -5417.7530133487 -2.68E-03
   361 Broy./Diag. 0.80E-01    1.5     0.00147747     -5417.7486022231  4.41E-03
   362 Broy./Diag. 0.80E-01    1.5     0.00185637     -5417.7446013797  4.00E-03
