 DBCSR| CPU Multiplication driver                                           XSMM (U)
 DBCSR| Multrec recursion limit                                              512 (U)
 DBCSR| Multiplication stack size                                           1000 (D)
 DBCSR| Maximum elements for images                                    UNLIMITED (U)
 DBCSR| Multiplicative factor virtual images                                   1 (U)
 DBCSR| Use multiplication densification                                       T (D)
 DBCSR| Multiplication size stacks                                             3 (U)
 DBCSR| Use memory pool for CPU allocation                                     F (U)
 DBCSR| Number of 3D layers                                               SINGLE (U)
 DBCSR| Use MPI memory allocation                                              F (U)
 DBCSR| Use RMA algorithm                                                      F (U)
 DBCSR| Use Communication thread                                               T (U)
 DBCSR| Communication thread load                                             87 (D)
 DBCSR| MPI: My process id                                                     0
 DBCSR| MPI: Number of processes                                             128
 DBCSR| OMP: Current number of threads                                         1
 DBCSR| OMP: Max number of threads                                             1
 DBCSR| Split modifier for TAS multiplication algorithm                  1.0E+00 (U)


  **** **** ******  **  PROGRAM STARTED AT               2023-02-15 17:08:37.719
 ***** ** ***  *** **   PROGRAM STARTED ON                             nid001649
 **    ****   ******    PROGRAM STARTED BY                                cahart
 ***** **    ** ** **   PROGRAM PROCESS ID                                141036
  **** **  *******  **  PROGRAM STARTED IN /mnt/lustre/a2fs-work2/work/e05/e05/c
                                           ahart/postdoc/masters/ni/archer2/slab
                                           /optimise/magnetisation/scf_1e-4_temp
                                           -2000_mos-1000_alpha-0.08_beta-1.5_pe
                                           riodic-xyz/search/0.72_0.8

 CP2K| version string:                 CP2K version 2023.1 (Development Version)
 CP2K| source code revision number:                                  git:964cd58
 CP2K| cp2kflags: omp libint fftw3 libxc elpa parallel scalapack xsmm plumed2 mk
 CP2K|            l
 CP2K| is freely available from                            https://www.cp2k.org/
 CP2K| Program compiled at                          Mon 13 Feb 17:05:14 GMT 2023
 CP2K| Program compiled on                                                  ln01
 CP2K| Program compiled for                                              ARCHER2
 CP2K| Data directory path    /work/e05/e05/cahart/cp2k/cp2k-2023.1/cp2k-2023.1-
 CP2K| Input file name                                                  cp2k.inp

 GLOBAL| Force Environment number                                              1
 GLOBAL| Basis set file name                                        BASIS_MOLOPT
 GLOBAL| Potential file name                                      GTH_POTENTIALS
 GLOBAL| MM Potential file name                                     MM_POTENTIAL
 GLOBAL| Coordinate file name                                      __STD_INPUT__
 GLOBAL| Method name                                                        CP2K
 GLOBAL| Project name                                                    Ni_bulk
 GLOBAL| Run type                                                         ENERGY
 GLOBAL| FFT library                                                       FFTW3
 GLOBAL| Diagonalization library                                            ELPA
 GLOBAL| DGEMM library                                                      BLAS
 GLOBAL| Minimum number of eigenvectors for ELPA usage                        16
 GLOBAL| Orthonormality check for eigenvectors                          DISABLED
 GLOBAL| Matrix multiplication library                                 ScaLAPACK
 GLOBAL| All-to-all communication in single precision                          F
 GLOBAL| FFTs using library dependent lengths                                  F
 GLOBAL| Grid backend                                                       AUTO
 GLOBAL| Global print level                                               MEDIUM
 GLOBAL| MPI I/O enabled                                                       T
 GLOBAL| Total number of message passing processes                           128
 GLOBAL| Number of threads for this process                                    1
 GLOBAL| This output is from process                                           0
 GLOBAL| Stack size for threads created by OpenMP (OMP_STACKSIZE)        default
 GLOBAL| CPU model name                          AMD EPYC 7742 64-Core Processor
 GLOBAL| CPUID                                                              1002

 MEMORY| system memory details [Kb]
 MEMORY|                        rank 0           min           max       average
 MEMORY| MemTotal            263528088     263528088     263528088     263528088
 MEMORY| MemFree             239114508     239114508     239114508     239114508
 MEMORY| Buffers                 32088         32088         32088         32088
 MEMORY| Cached                 622848        622848        622848        622848
 MEMORY| Slab                  1531392       1531392       1531392       1531392
 MEMORY| SReclaimable           105184        105184        105184        105184
 MEMORY| MemLikelyFree       239874628     239874628     239874628     239874628


 *** Fundamental physical constants (SI units) ***

 *** Literature: B. J. Mohr and B. N. Taylor,
 ***             CODATA recommended values of the fundamental physical
 ***             constants: 2006, Web Version 5.1
 ***             http://physics.nist.gov/constants

 Speed of light in vacuum [m/s]                             2.99792458000000E+08
 Magnetic constant or permeability of vacuum [N/A**2]       1.25663706143592E-06
 Electric constant or permittivity of vacuum [F/m]          8.85418781762039E-12
 Planck constant (h) [J*s]                                  6.62606896000000E-34
 Planck constant (h-bar) [J*s]                              1.05457162825177E-34
 Elementary charge [C]                                      1.60217648700000E-19
 Electron mass [kg]                                         9.10938215000000E-31
 Electron g factor [ ]                                     -2.00231930436220E+00
 Proton mass [kg]                                           1.67262163700000E-27
 Fine-structure constant                                    7.29735253760000E-03
 Rydberg constant [1/m]                                     1.09737315685270E+07
 Avogadro constant [1/mol]                                  6.02214179000000E+23
 Boltzmann constant [J/K]                                   1.38065040000000E-23
 Atomic mass unit [kg]                                      1.66053878200000E-27
 Bohr radius [m]                                            5.29177208590000E-11

 *** Conversion factors ***

 [u] -> [a.u.]                                              1.82288848426455E+03
 [Angstrom] -> [Bohr] = [a.u.]                              1.88972613288564E+00
 [a.u.] = [Bohr] -> [Angstrom]                              5.29177208590000E-01
 [a.u.] -> [s]                                              2.41888432650478E-17
 [a.u.] -> [fs]                                             2.41888432650478E-02
 [a.u.] -> [J]                                              4.35974393937059E-18
 [a.u.] -> [N]                                              8.23872205491840E-08
 [a.u.] -> [K]                                              3.15774647902944E+05
 [a.u.] -> [kJ/mol]                                         2.62549961709828E+03
 [a.u.] -> [kcal/mol]                                       6.27509468713739E+02
 [a.u.] -> [Pa]                                             2.94210107994716E+13
 [a.u.] -> [bar]                                            2.94210107994716E+08
 [a.u.] -> [atm]                                            2.90362800883016E+08
 [a.u.] -> [eV]                                             2.72113838565563E+01
 [a.u.] -> [Hz]                                             6.57968392072181E+15
 [a.u.] -> [1/cm] (wave numbers)                            2.19474631370540E+05
 [a.u./Bohr**2] -> [1/cm]                                   5.14048714338585E+03
 

 CELL_TOP| Volume [angstrom^3]:                                       983.249569
 CELL_TOP| Vector a [angstrom     7.012     0.000     0.000   |a| =     7.011596
 CELL_TOP| Vector b [angstrom     0.000     7.012     0.000   |b| =     7.011596
 CELL_TOP| Vector c [angstrom     0.000     0.000    20.000   |c| =    20.000000
 CELL_TOP| Angle (b,c), alpha [degree]:                                90.000000
 CELL_TOP| Angle (a,c), beta  [degree]:                                90.000000
 CELL_TOP| Angle (a,b), gamma [degree]:                                90.000000
 CELL_TOP| Numerically orthorhombic:                                         YES
 CELL_TOP| Periodicity                                                       XYZ

 GENERATE|  Preliminary Number of Bonds generated:                             0
 GENERATE|  Achieved consistency in connectivity generation.

 CELL| Volume [angstrom^3]:                                           983.249569
 CELL| Vector a [angstrom]:       7.012     0.000     0.000   |a| =     7.011596
 CELL| Vector b [angstrom]:       0.000     7.012     0.000   |b| =     7.011596
 CELL| Vector c [angstrom]:       0.000     0.000    20.000   |c| =    20.000000
 CELL| Angle (b,c), alpha [degree]:                                    90.000000
 CELL| Angle (a,c), beta  [degree]:                                    90.000000
 CELL| Angle (a,b), gamma [degree]:                                    90.000000
 CELL| Numerically orthorhombic:                                             YES
 CELL| Periodicity                                                           XYZ

 CELL_REF| Volume [angstrom^3]:                                       983.249569
 CELL_REF| Vector a [angstrom     7.012     0.000     0.000   |a| =     7.011596
 CELL_REF| Vector b [angstrom     0.000     7.012     0.000   |b| =     7.011596
 CELL_REF| Vector c [angstrom     0.000     0.000    20.000   |c| =    20.000000
 CELL_REF| Angle (b,c), alpha [degree]:                                90.000000
 CELL_REF| Angle (a,c), beta  [degree]:                                90.000000
 CELL_REF| Angle (a,b), gamma [degree]:                                90.000000
 CELL_REF| Numerically orthorhombic:                                         YES
 CELL_REF| Periodicity                                                       XYZ

 *** WARNING in cryssym.F:165 :: Symmetry library SPGLIB not available ***


 *******************************************************************************
                                    Kpoints
 *******************************************************************************
 BRILLOUIN| K-point scheme                                        Monkhorst-Pack
 BRILLOUIN| K-Point grid                                             4    4    1
 BRILLOUIN| Accuracy in Symmetry determination                      0.100000E-05
 BRILLOUIN| K-Point point group symmetrization                               OFF
 BRILLOUIN| Wavefunction type                                            COMPLEX
 BRILLOUIN| List of Kpoints [2 Pi/Bohr]                                        8
 BRILLOUIN| Number           Weight            X              Y              Z
 BRILLOUIN|     1           0.12500       -0.37500       -0.37500        0.00000
 BRILLOUIN|     2           0.12500       -0.37500       -0.12500        0.00000
 BRILLOUIN|     3           0.12500       -0.37500        0.12500        0.00000
 BRILLOUIN|     4           0.12500       -0.37500        0.37500        0.00000
 BRILLOUIN|     5           0.12500       -0.12500       -0.37500        0.00000
 BRILLOUIN|     6           0.12500       -0.12500       -0.12500        0.00000
 BRILLOUIN|     7           0.12500       -0.12500        0.12500        0.00000
 BRILLOUIN|     8           0.12500       -0.12500        0.37500        0.00000
 *******************************************************************************

 *******************************************************************************
 *******************************************************************************
 **                                                                           **
 **     #####                         ##              ##                      **
 **    ##   ##            ##          ##              ##                      **
 **   ##     ##                       ##            ######                    **
 **   ##     ##  ##   ##  ##   #####  ##  ##   ####   ##    #####    #####    **
 **   ##     ##  ##   ##  ##  ##      ## ##   ##      ##   ##   ##  ##   ##   **
 **   ##  ## ##  ##   ##  ##  ##      ####     ###    ##   ######   ######    **
 **    ##  ###   ##   ##  ##  ##      ## ##      ##   ##   ##       ##        **
 **     #######   #####   ##   #####  ##  ##  ####    ##    #####   ##        **
 **           ##                                                    ##        **
 **                                                                           **
 **                                                ... make the atoms dance   **
 **                                                                           **
 **            Copyright (C) by CP2K developers group (2000-2023)             **
 **                      J. Chem. Phys. 152, 194103 (2020)                    **
 **                                                                           **
 *******************************************************************************

 *** WARNING in qs_environment.F:1456 :: Number of electrons will be ***
 *** overwritten by NELEC_ALPHA and NELEC_BETA, multiplicity will be ***
 *** ignored.                                                        ***

 Number of electrons should be                                               576
 Sum of NELEC_ALPHA and NELEC_BETA is                                    576.000

 *** WARNING in qs_environment.F:1488 :: NELEC_ALPHA is not an integer, ***
 *** many features will not be supported.                               ***


 *** WARNING in qs_environment.F:1500 :: NELEC_BETA is not an integer, ***
 *** many features will not be supported.                              ***


 *** WARNING in qs_environment.F:1532 :: More ADDED_MOs requested for beta ***
 *** spin than available.                                                  ***


 *** WARNING in qs_environment.F:1548 :: More added MOs requested than     ***
 *** available. The full set of unoccupied MOs will be used. Use           ***
 *** 'ADDED_MOS -1' to always use all available MOs and to get rid of this ***
 *** warning.                                                              ***


 DFT| Spin unrestricted (spin-polarized) Kohn-Sham calculation               UKS
 DFT| Multiplicity                                                             1
 DFT| Number of spin states                                                    2
 DFT| Charge                                                                   0
 DFT| Self-interaction correction (SIC)                                       NO
 DFT| Cutoffs: density                                              1.000000E-10
 DFT|          gradient                                             1.000000E-10
 DFT|          tau                                                  1.000000E-10
 DFT|          cutoff_smoothing_range                               0.000000E+00
 DFT| XC density smoothing                                                  NONE
 DFT| XC derivatives                                                          PW

 FUNCTIONAL| PBE:
 FUNCTIONAL| J.P.Perdew, K.Burke, M.Ernzerhof, Phys. Rev. Letter, vol. 77, n 18,
 FUNCTIONAL|  pp. 3865-3868, (1996){spin polarized}                             

 vdW POTENTIAL|                                                   Pair Potential
 vdW POTENTIAL|          DFT-D3 (Version 3.1)
 vdW POTENTIAL|          Potential Form: S. Grimme et al, JCP 132: 154104 (2010)
 vdW POTENTIAL|          Zero Damping
 vdW POTENTIAL|          Cutoff Radius [Bohr]:                             20.00
 vdW POTENTIAL|          s6 Scaling Factor:                               1.0000
 vdW POTENTIAL|          sr6 Scaling Factor:                              1.2170
 vdW POTENTIAL|          s8 Scaling Factor:                               0.7220
 vdW POTENTIAL|          Cutoff for CN calculation:                   0.1000E-05

 QS| Method:                                                                 GPW
 QS| Density plane wave grid type                        NON-SPHERICAL FULLSPACE
 QS| Number of grid levels:                                                    5
 QS| Density cutoff [a.u.]:                                                300.0
 QS| Multi grid cutoff [a.u.]: 1) grid level                               300.0
 QS|                           2) grid level                               100.0
 QS|                           3) grid level                                33.3
 QS|                           4) grid level                                11.1
 QS|                           5) grid level                                 3.7
 QS| Grid level progression factor:                                          3.0
 QS| Relative density cutoff [a.u.]:                                        30.0
 QS| Interaction thresholds: eps_pgf_orb:                                1.0E-06
 QS|                         eps_filter_matrix:                          0.0E+00
 QS|                         eps_core_charge:                            1.0E-14
 QS|                         eps_rho_gspace:                             1.0E-12
 QS|                         eps_rho_rspace:                             1.0E-12
 QS|                         eps_gvg_rspace:                             1.0E-06
 QS|                         eps_ppl:                                    1.0E-02
 QS|                         eps_ppnl:                                   1.0E-08


 ATOMIC KIND INFORMATION

  1. Atomic kind: Ni_i                                  Number of atoms:      16

     Orbital Basis Set                                        DZVP-MOLOPT-SR-GTH

       Number of orbital shell sets:                                           1
       Number of orbital shells:                                               8
       Number of primitive Cartesian functions:                                6
       Number of Cartesian basis functions:                                   31
       Number of spherical basis functions:                                   26
       Norm type:                                                              2

       Normalised Cartesian orbitals:

                        Set   Shell   Orbital            Exponent    Coefficient

                          1       1    2s               10.077428      -0.684558
                                                         5.847736      -0.844524
                                                         2.494033       1.088856
                                                         0.988355       0.395503
                                                         0.344978       0.010224
                                                         0.099466      -0.003250

                          1       2    3s               10.077428       0.096747
                                                         5.847736       0.162504
                                                         2.494033      -0.297192
                                                         0.988355      -0.319752
                                                         0.344978       0.088318
                                                         0.099466       0.118587

                          1       3    4s               10.077428       0.036437
                                                         5.847736      -0.381480
                                                         2.494033       0.003759
                                                         0.988355      -1.048256
                                                         0.344978       0.855825
                                                         0.099466      -0.176350

                          1       4    3px              10.077428      -3.133913
                                                         5.847736       3.027656
                                                         2.494033       2.353227
                                                         0.988355       0.554184
                                                         0.344978       0.019462
                                                         0.099466      -0.000291
                          1       4    3py              10.077428      -3.133913
                                                         5.847736       3.027656
                                                         2.494033       2.353227
                                                         0.988355       0.554184
                                                         0.344978       0.019462
                                                         0.099466      -0.000291
                          1       4    3pz              10.077428      -3.133913
                                                         5.847736       3.027656
                                                         2.494033       2.353227
                                                         0.988355       0.554184
                                                         0.344978       0.019462
                                                         0.099466      -0.000291

                          1       5    4px              10.077428      -0.112729
                                                         5.847736      -0.114008
                                                         2.494033      -0.347303
                                                         0.988355      -0.110323
                                                         0.344978       0.154096
                                                         0.099466       0.058386
                          1       5    4py              10.077428      -0.112729
                                                         5.847736      -0.114008
                                                         2.494033      -0.347303
                                                         0.988355      -0.110323
                                                         0.344978       0.154096
                                                         0.099466       0.058386
                          1       5    4pz              10.077428      -0.112729
                                                         5.847736      -0.114008
                                                         2.494033      -0.347303
                                                         0.988355      -0.110323
                                                         0.344978       0.154096
                                                         0.099466       0.058386

                          1       6    4dx2             10.077428       8.232726
                                                         5.847736       9.105758
                                                         2.494033       2.849835
                                                         0.988355       0.554319
                                                         0.344978       0.067245
                                                         0.099466       0.001940
                          1       6    4dxy             10.077428      14.259500
                                                         5.847736      15.771636
                                                         2.494033       4.936060
                                                         0.988355       0.960109
                                                         0.344978       0.116472
                                                         0.099466       0.003360
                          1       6    4dxz             10.077428      14.259500
                                                         5.847736      15.771636
                                                         2.494033       4.936060
                                                         0.988355       0.960109
                                                         0.344978       0.116472
                                                         0.099466       0.003360
                          1       6    4dy2             10.077428       8.232726
                                                         5.847736       9.105758
                                                         2.494033       2.849835
                                                         0.988355       0.554319
                                                         0.344978       0.067245
                                                         0.099466       0.001940
                          1       6    4dyz             10.077428      14.259500
                                                         5.847736      15.771636
                                                         2.494033       4.936060
                                                         0.988355       0.960109
                                                         0.344978       0.116472
                                                         0.099466       0.003360
                          1       6    4dz2             10.077428       8.232726
                                                         5.847736       9.105758
                                                         2.494033       2.849835
                                                         0.988355       0.554319
                                                         0.344978       0.067245
                                                         0.099466       0.001940

                          1       7    5dx2             10.077428      -2.715373
                                                         5.847736      -4.020640
                                                         2.494033      -1.397569
                                                         0.988355      -0.076143
                                                         0.344978       0.033435
                                                         0.099466       0.026032
                          1       7    5dxy             10.077428      -4.703164
                                                         5.847736      -6.963952
                                                         2.494033      -2.420661
                                                         0.988355      -0.131883
                                                         0.344978       0.057911
                                                         0.099466       0.045088
                          1       7    5dxz             10.077428      -4.703164
                                                         5.847736      -6.963952
                                                         2.494033      -2.420661
                                                         0.988355      -0.131883
                                                         0.344978       0.057911
                                                         0.099466       0.045088
                          1       7    5dy2             10.077428      -2.715373
                                                         5.847736      -4.020640
                                                         2.494033      -1.397569
                                                         0.988355      -0.076143
                                                         0.344978       0.033435
                                                         0.099466       0.026032
                          1       7    5dyz             10.077428      -4.703164
                                                         5.847736      -6.963952
                                                         2.494033      -2.420661
                                                         0.988355      -0.131883
                                                         0.344978       0.057911
                                                         0.099466       0.045088
                          1       7    5dz2             10.077428      -2.715373
                                                         5.847736      -4.020640
                                                         2.494033      -1.397569
                                                         0.988355      -0.076143
                                                         0.344978       0.033435
                                                         0.099466       0.026032

                          1       8    5fx3             10.077428      -0.467694
                                                         5.847736       0.618100
                                                         2.494033       0.066069
                                                         0.988355       0.262898
                                                         0.344978       0.004720
                                                         0.099466       0.007748
                          1       8    5fx2y            10.077428      -1.045795
                                                         5.847736       1.382114
                                                         2.494033       0.147734
                                                         0.988355       0.587859
                                                         0.344978       0.010555
                                                         0.099466       0.017325
                          1       8    5fx2z            10.077428      -1.045795
                                                         5.847736       1.382114
                                                         2.494033       0.147734
                                                         0.988355       0.587859
                                                         0.344978       0.010555
                                                         0.099466       0.017325
                          1       8    5fxy2            10.077428      -1.045795
                                                         5.847736       1.382114
                                                         2.494033       0.147734
                                                         0.988355       0.587859
                                                         0.344978       0.010555
                                                         0.099466       0.017325
                          1       8    5fxyz            10.077428      -1.811371
                                                         5.847736       2.393892
                                                         2.494033       0.255883
                                                         0.988355       1.018201
                                                         0.344978       0.018282
                                                         0.099466       0.030008
                          1       8    5fxz2            10.077428      -1.045795
                                                         5.847736       1.382114
                                                         2.494033       0.147734
                                                         0.988355       0.587859
                                                         0.344978       0.010555
                                                         0.099466       0.017325
                          1       8    5fy3             10.077428      -0.467694
                                                         5.847736       0.618100
                                                         2.494033       0.066069
                                                         0.988355       0.262898
                                                         0.344978       0.004720
                                                         0.099466       0.007748
                          1       8    5fy2z            10.077428      -1.045795
                                                         5.847736       1.382114
                                                         2.494033       0.147734
                                                         0.988355       0.587859
                                                         0.344978       0.010555
                                                         0.099466       0.017325
                          1       8    5fyz2            10.077428      -1.045795
                                                         5.847736       1.382114
                                                         2.494033       0.147734
                                                         0.988355       0.587859
                                                         0.344978       0.010555
                                                         0.099466       0.017325
                          1       8    5fz3             10.077428      -0.467694
                                                         5.847736       0.618100
                                                         2.494033       0.066069
                                                         0.988355       0.262898
                                                         0.344978       0.004720
                                                         0.099466       0.007748

       Atomic covalent radius [Angstrom]:                                  1.150

       Atomic van der Waals radius [Angstrom]:                             1.630

     GTH Potential information for                                   GTH-PBE-q18

       Description:                       Goedecker-Teter-Hutter pseudopotential
                                           Goedecker et al., PRB 54, 1703 (1996)
                                          Hartwigsen et al., PRB 58, 3641 (1998)
                                                      Krack, TCA 114, 145 (2005)

       Gaussian exponent of the core charge distribution:               4.081633
       Electronic configuration (s p d ...):                           4   6   8

       Parameters of the local part of the GTH pseudopotential:

                          rloc        C1          C2          C3          C4
                        0.350000    2.102166    0.648484

       Parameters of the non-local part of the GTH pseudopotential:

                   l      r(l)      h(i,j,l)

                   0    0.261295    0.622658    9.970227
                                    9.970227  -12.871507
                   1    0.224253  -11.142708   12.429566
                                   12.429566  -14.706861
                   2    0.215348  -12.628146

  2. Atomic kind: Ni_b                                  Number of atoms:      16

     Orbital Basis Set                                        DZVP-MOLOPT-SR-GTH

       Number of orbital shell sets:                                           1
       Number of orbital shells:                                               8
       Number of primitive Cartesian functions:                                6
       Number of Cartesian basis functions:                                   31
       Number of spherical basis functions:                                   26
       Norm type:                                                              2

       Normalised Cartesian orbitals:

                        Set   Shell   Orbital            Exponent    Coefficient

                          1       1    2s               10.077428      -0.684558
                                                         5.847736      -0.844524
                                                         2.494033       1.088856
                                                         0.988355       0.395503
                                                         0.344978       0.010224
                                                         0.099466      -0.003250

                          1       2    3s               10.077428       0.096747
                                                         5.847736       0.162504
                                                         2.494033      -0.297192
                                                         0.988355      -0.319752
                                                         0.344978       0.088318
                                                         0.099466       0.118587

                          1       3    4s               10.077428       0.036437
                                                         5.847736      -0.381480
                                                         2.494033       0.003759
                                                         0.988355      -1.048256
                                                         0.344978       0.855825
                                                         0.099466      -0.176350

                          1       4    3px              10.077428      -3.133913
                                                         5.847736       3.027656
                                                         2.494033       2.353227
                                                         0.988355       0.554184
                                                         0.344978       0.019462
                                                         0.099466      -0.000291
                          1       4    3py              10.077428      -3.133913
                                                         5.847736       3.027656
                                                         2.494033       2.353227
                                                         0.988355       0.554184
                                                         0.344978       0.019462
                                                         0.099466      -0.000291
                          1       4    3pz              10.077428      -3.133913
                                                         5.847736       3.027656
                                                         2.494033       2.353227
                                                         0.988355       0.554184
                                                         0.344978       0.019462
                                                         0.099466      -0.000291

                          1       5    4px              10.077428      -0.112729
                                                         5.847736      -0.114008
                                                         2.494033      -0.347303
                                                         0.988355      -0.110323
                                                         0.344978       0.154096
                                                         0.099466       0.058386
                          1       5    4py              10.077428      -0.112729
                                                         5.847736      -0.114008
                                                         2.494033      -0.347303
                                                         0.988355      -0.110323
                                                         0.344978       0.154096
                                                         0.099466       0.058386
                          1       5    4pz              10.077428      -0.112729
                                                         5.847736      -0.114008
                                                         2.494033      -0.347303
                                                         0.988355      -0.110323
                                                         0.344978       0.154096
                                                         0.099466       0.058386

                          1       6    4dx2             10.077428       8.232726
                                                         5.847736       9.105758
                                                         2.494033       2.849835
                                                         0.988355       0.554319
                                                         0.344978       0.067245
                                                         0.099466       0.001940
                          1       6    4dxy             10.077428      14.259500
                                                         5.847736      15.771636
                                                         2.494033       4.936060
                                                         0.988355       0.960109
                                                         0.344978       0.116472
                                                         0.099466       0.003360
                          1       6    4dxz             10.077428      14.259500
                                                         5.847736      15.771636
                                                         2.494033       4.936060
                                                         0.988355       0.960109
                                                         0.344978       0.116472
                                                         0.099466       0.003360
                          1       6    4dy2             10.077428       8.232726
                                                         5.847736       9.105758
                                                         2.494033       2.849835
                                                         0.988355       0.554319
                                                         0.344978       0.067245
                                                         0.099466       0.001940
                          1       6    4dyz             10.077428      14.259500
                                                         5.847736      15.771636
                                                         2.494033       4.936060
                                                         0.988355       0.960109
                                                         0.344978       0.116472
                                                         0.099466       0.003360
                          1       6    4dz2             10.077428       8.232726
                                                         5.847736       9.105758
                                                         2.494033       2.849835
                                                         0.988355       0.554319
                                                         0.344978       0.067245
                                                         0.099466       0.001940

                          1       7    5dx2             10.077428      -2.715373
                                                         5.847736      -4.020640
                                                         2.494033      -1.397569
                                                         0.988355      -0.076143
                                                         0.344978       0.033435
                                                         0.099466       0.026032
                          1       7    5dxy             10.077428      -4.703164
                                                         5.847736      -6.963952
                                                         2.494033      -2.420661
                                                         0.988355      -0.131883
                                                         0.344978       0.057911
                                                         0.099466       0.045088
                          1       7    5dxz             10.077428      -4.703164
                                                         5.847736      -6.963952
                                                         2.494033      -2.420661
                                                         0.988355      -0.131883
                                                         0.344978       0.057911
                                                         0.099466       0.045088
                          1       7    5dy2             10.077428      -2.715373
                                                         5.847736      -4.020640
                                                         2.494033      -1.397569
                                                         0.988355      -0.076143
                                                         0.344978       0.033435
                                                         0.099466       0.026032
                          1       7    5dyz             10.077428      -4.703164
                                                         5.847736      -6.963952
                                                         2.494033      -2.420661
                                                         0.988355      -0.131883
                                                         0.344978       0.057911
                                                         0.099466       0.045088
                          1       7    5dz2             10.077428      -2.715373
                                                         5.847736      -4.020640
                                                         2.494033      -1.397569
                                                         0.988355      -0.076143
                                                         0.344978       0.033435
                                                         0.099466       0.026032

                          1       8    5fx3             10.077428      -0.467694
                                                         5.847736       0.618100
                                                         2.494033       0.066069
                                                         0.988355       0.262898
                                                         0.344978       0.004720
                                                         0.099466       0.007748
                          1       8    5fx2y            10.077428      -1.045795
                                                         5.847736       1.382114
                                                         2.494033       0.147734
                                                         0.988355       0.587859
                                                         0.344978       0.010555
                                                         0.099466       0.017325
                          1       8    5fx2z            10.077428      -1.045795
                                                         5.847736       1.382114
                                                         2.494033       0.147734
                                                         0.988355       0.587859
                                                         0.344978       0.010555
                                                         0.099466       0.017325
                          1       8    5fxy2            10.077428      -1.045795
                                                         5.847736       1.382114
                                                         2.494033       0.147734
                                                         0.988355       0.587859
                                                         0.344978       0.010555
                                                         0.099466       0.017325
                          1       8    5fxyz            10.077428      -1.811371
                                                         5.847736       2.393892
                                                         2.494033       0.255883
                                                         0.988355       1.018201
                                                         0.344978       0.018282
                                                         0.099466       0.030008
                          1       8    5fxz2            10.077428      -1.045795
                                                         5.847736       1.382114
                                                         2.494033       0.147734
                                                         0.988355       0.587859
                                                         0.344978       0.010555
                                                         0.099466       0.017325
                          1       8    5fy3             10.077428      -0.467694
                                                         5.847736       0.618100
                                                         2.494033       0.066069
                                                         0.988355       0.262898
                                                         0.344978       0.004720
                                                         0.099466       0.007748
                          1       8    5fy2z            10.077428      -1.045795
                                                         5.847736       1.382114
                                                         2.494033       0.147734
                                                         0.988355       0.587859
                                                         0.344978       0.010555
                                                         0.099466       0.017325
                          1       8    5fyz2            10.077428      -1.045795
                                                         5.847736       1.382114
                                                         2.494033       0.147734
                                                         0.988355       0.587859
                                                         0.344978       0.010555
                                                         0.099466       0.017325
                          1       8    5fz3             10.077428      -0.467694
                                                         5.847736       0.618100
                                                         2.494033       0.066069
                                                         0.988355       0.262898
                                                         0.344978       0.004720
                                                         0.099466       0.007748

       Atomic covalent radius [Angstrom]:                                  1.150

       Atomic van der Waals radius [Angstrom]:                             1.630

     GTH Potential information for                                   GTH-PBE-q18

       Description:                       Goedecker-Teter-Hutter pseudopotential
                                           Goedecker et al., PRB 54, 1703 (1996)
                                          Hartwigsen et al., PRB 58, 3641 (1998)
                                                      Krack, TCA 114, 145 (2005)

       Gaussian exponent of the core charge distribution:               4.081633
       Electronic configuration (s p d ...):                           4   6   8

       Parameters of the local part of the GTH pseudopotential:

                          rloc        C1          C2          C3          C4
                        0.350000    2.102166    0.648484

       Parameters of the non-local part of the GTH pseudopotential:

                   l      r(l)      h(i,j,l)

                   0    0.261295    0.622658    9.970227
                                    9.970227  -12.871507
                   1    0.224253  -11.142708   12.429566
                                   12.429566  -14.706861
                   2    0.215348  -12.628146


 MOLECULE KIND INFORMATION


 All atoms are their own molecule, skipping detailed information


 TOTAL NUMBERS AND MAXIMUM NUMBERS

  Total number of            - Atomic kinds:                                   2
                             - Atoms:                                         32
                             - Shell sets:                                    32
                             - Shells:                                       256
                             - Primitive Cartesian functions:                192
                             - Cartesian basis functions:                    992
                             - Spherical basis functions:                    832

  Maximum angular momentum of- Orbital basis functions:                        3
                             - Local part of the GTH pseudopotential:          2
                             - Non-local part of the GTH pseudopotential:      3


 MODULE QUICKSTEP: ATOMIC COORDINATES IN ANGSTROM

   Atom Kind Element         X             Y             Z       Z(eff)     Mass
      1    1 Ni   28      0.876298      0.876298      7.370500  18.0000  58.6934
      2    1 Ni   28      0.876298      4.382298      7.370500  18.0000  58.6934
      3    1 Ni   28      2.629298      2.629298      7.370500  18.0000  58.6934
      4    1 Ni   28      2.629298      6.135298      7.370500  18.0000  58.6934
      5    1 Ni   28      4.382298      0.876298      7.370500  18.0000  58.6934
      6    1 Ni   28      4.382298      4.382298      7.370500  18.0000  58.6934
      7    1 Ni   28      6.135298      2.629298      7.370500  18.0000  58.6934
      8    1 Ni   28      6.135298      6.135298      7.370500  18.0000  58.6934
      9    2 Ni   28      0.876298      2.629298      9.123500  18.0000  58.6934
     10    2 Ni   28      0.876298      6.135298      9.123500  18.0000  58.6934
     11    2 Ni   28      2.629298      0.876298      9.123500  18.0000  58.6934
     12    2 Ni   28      2.629298      4.382298      9.123500  18.0000  58.6934
     13    2 Ni   28      4.382298      2.629298      9.123500  18.0000  58.6934
     14    2 Ni   28      4.382298      6.135298      9.123500  18.0000  58.6934
     15    2 Ni   28      6.135298      0.876298      9.123500  18.0000  58.6934
     16    2 Ni   28      6.135298      4.382298      9.123500  18.0000  58.6934
     17    2 Ni   28      0.876298      0.876298     10.876500  18.0000  58.6934
     18    2 Ni   28      0.876298      4.382298     10.876500  18.0000  58.6934
     19    2 Ni   28      2.629298      2.629298     10.876500  18.0000  58.6934
     20    2 Ni   28      2.629298      6.135298     10.876500  18.0000  58.6934
     21    2 Ni   28      4.382298      0.876298     10.876500  18.0000  58.6934
     22    2 Ni   28      4.382298      4.382298     10.876500  18.0000  58.6934
     23    2 Ni   28      6.135298      2.629298     10.876500  18.0000  58.6934
     24    2 Ni   28      6.135298      6.135298     10.876500  18.0000  58.6934
     25    1 Ni   28      0.876298      2.629298     12.629500  18.0000  58.6934
     26    1 Ni   28      0.876298      6.135298     12.629500  18.0000  58.6934
     27    1 Ni   28      2.629298      0.876298     12.629500  18.0000  58.6934
     28    1 Ni   28      2.629298      4.382298     12.629500  18.0000  58.6934
     29    1 Ni   28      4.382298      2.629298     12.629500  18.0000  58.6934
     30    1 Ni   28      4.382298      6.135298     12.629500  18.0000  58.6934
     31    1 Ni   28      6.135298      0.876298     12.629500  18.0000  58.6934
     32    1 Ni   28      6.135298      4.382298     12.629500  18.0000  58.6934



 SCF PARAMETERS         Density guess:                                    ATOMIC
                        --------------------------------------------------------
                        max_scf:                                             500
                        max_scf_history:                                       0
                        max_diis:                                              4
                        --------------------------------------------------------
                        eps_scf:                                        1.00E-04
                        eps_scf_history:                                0.00E+00
                        eps_diis:                                       1.00E-01
                        eps_eigval:                                     1.00E-05
                        --------------------------------------------------------
                        level_shift [a.u.]:                             0.000000
                        added MOs                                       531  556
                        --------------------------------------------------------
                        Mixing method:                            BROYDEN_MIXING
                                                charge density mixing in g-space
                        --------------------------------------------------------
                        Smear method:                                FERMI_DIRAC
                        Electronic temperature [K]:                       2000.0
                        Electronic temperature [a.u.]:                  6.33E-03
                        Accuracy threshold:                             1.00E-10
                        --------------------------------------------------------
                        No outer SCF

 PW_GRID| Information for grid number                                          1
 PW_GRID| Grid distributed over                                   128 processors
 PW_GRID| Real space group dimensions                                     8   16
 PW_GRID| the grid is blocked:                                               YES
 PW_GRID| Cutoff [a.u.]                                                    300.0
 PW_GRID| spherical cutoff:                                                   NO
 PW_GRID|   Bounds   1            -54      53                Points:         108
 PW_GRID|   Bounds   2            -54      53                Points:         108
 PW_GRID|   Bounds   3           -150     149                Points:         300
 PW_GRID| Volume element (a.u.^3)  0.1896E-02     Volume (a.u.^3)      6635.2971
 PW_GRID| Grid span                                                    FULLSPACE
 PW_GRID|   Distribution                         Average         Max         Min
 PW_GRID|   G-Vectors                            27337.5       28728       25272
 PW_GRID|   G-Rays                                 253.1         266         234
 PW_GRID|   Real Space Points                    27337.5       28728       25272

 PW_GRID| Information for grid number                                          2
 PW_GRID| Number of the reference grid                                         1
 PW_GRID| Grid distributed over                                   128 processors
 PW_GRID| Real space group dimensions                                     8   16
 PW_GRID| the grid is blocked:                                                NO
 PW_GRID| Cutoff [a.u.]                                                    100.0
 PW_GRID| spherical cutoff:                                                   NO
 PW_GRID|   Bounds   1            -30      29                Points:          60
 PW_GRID|   Bounds   2            -30      29                Points:          60
 PW_GRID|   Bounds   3            -90      89                Points:         180
 PW_GRID| Volume element (a.u.^3)  0.1024E-01     Volume (a.u.^3)      6635.2971
 PW_GRID| Grid span                                                    FULLSPACE
 PW_GRID|   Distribution                         Average         Max         Min
 PW_GRID|   G-Vectors                             5062.5       15960           0
 PW_GRID|   G-Rays                                  84.4         266           0
 PW_GRID|   Real Space Points                     5062.5        5760        3780

 PW_GRID| Information for grid number                                          3
 PW_GRID| Number of the reference grid                                         1
 PW_GRID| Grid distributed over                                   128 processors
 PW_GRID| Real space group dimensions                                     8   16
 PW_GRID| the grid is blocked:                                                NO
 PW_GRID| Cutoff [a.u.]                                                     33.3
 PW_GRID| spherical cutoff:                                                   NO
 PW_GRID|   Bounds   1            -18      17                Points:          36
 PW_GRID|   Bounds   2            -18      17                Points:          36
 PW_GRID|   Bounds   3            -50      49                Points:         100
 PW_GRID| Volume element (a.u.^3)  0.5120E-01     Volume (a.u.^3)      6635.2971
 PW_GRID| Grid span                                                    FULLSPACE
 PW_GRID|   Distribution                         Average         Max         Min
 PW_GRID|   G-Vectors                             1012.5        9576           0
 PW_GRID|   G-Rays                                  28.1         266           0
 PW_GRID|   Real Space Points                     1012.5        1500         800

 PW_GRID| Information for grid number                                          4
 PW_GRID| Number of the reference grid                                         1
 PW_GRID| Grid distributed over                                   128 processors
 PW_GRID| Real space group dimensions                                     8   16
 PW_GRID| the grid is blocked:                                                NO
 PW_GRID| Cutoff [a.u.]                                                     11.1
 PW_GRID| spherical cutoff:                                                   NO
 PW_GRID|   Bounds   1            -10       9                Points:          20
 PW_GRID|   Bounds   2            -10       9                Points:          20
 PW_GRID|   Bounds   3            -30      29                Points:          60
 PW_GRID| Volume element (a.u.^3)  0.2765         Volume (a.u.^3)      6635.2971
 PW_GRID| Grid span                                                    FULLSPACE
 PW_GRID|   Distribution                         Average         Max         Min
 PW_GRID|   G-Vectors                              187.5        3800           0
 PW_GRID|   G-Rays                                   9.4         190           0
 PW_GRID|   Real Space Points                      187.5         360         120

 PW_GRID| Information for grid number                                          5
 PW_GRID| Number of the reference grid                                         1
 PW_GRID| Grid distributed over                                   128 processors
 PW_GRID| Real space group dimensions                                     8   16
 PW_GRID| the grid is blocked:                                                NO
 PW_GRID| Cutoff [a.u.]                                                      3.7
 PW_GRID| spherical cutoff:                                                   NO
 PW_GRID|   Bounds   1             -6       5                Points:          12
 PW_GRID|   Bounds   2             -6       5                Points:          12
 PW_GRID|   Bounds   3            -18      17                Points:          36
 PW_GRID| Volume element (a.u.^3)   1.280         Volume (a.u.^3)      6635.2971
 PW_GRID| Grid span                                                    FULLSPACE
 PW_GRID|   Distribution                         Average         Max         Min
 PW_GRID|   G-Vectors                               40.5        1296           0
 PW_GRID|   G-Rays                                   3.4         108           0
 PW_GRID|   Real Space Points                       40.5          72           0

 POISSON| Solver                                                        PERIODIC
 POISSON| Periodicity                                                        XYZ

 RS_GRID| Information for grid number                                          1
 RS_GRID|   Bounds   1            -54      53                Points:         108
 RS_GRID|   Bounds   2            -54      53                Points:         108
 RS_GRID|   Bounds   3           -150     149                Points:         300
 RS_GRID| Real space distribution over                                  8 groups
 RS_GRID| Real space distribution along direction                              2
 RS_GRID| Border size                                                         28
 RS_GRID| Real space distribution over                                 16 groups
 RS_GRID| Real space distribution along direction                              3
 RS_GRID| Border size                                                         28
 RS_GRID|   Distribution                         Average         Max         Min
 RS_GRID|   Planes                                  69.5          70          69
 RS_GRID|   Distribution                         Average         Max         Min
 RS_GRID|   Planes                                  74.8          75          74

 RS_GRID| Information for grid number                                          2
 RS_GRID|   Bounds   1            -30      29                Points:          60
 RS_GRID|   Bounds   2            -30      29                Points:          60
 RS_GRID|   Bounds   3            -90      89                Points:         180
 RS_GRID| Real space fully replicated
 RS_GRID| Group size                                                           1

 RS_GRID| Information for grid number                                          3
 RS_GRID|   Bounds   1            -18      17                Points:          36
 RS_GRID|   Bounds   2            -18      17                Points:          36
 RS_GRID|   Bounds   3            -50      49                Points:         100
 RS_GRID| Real space fully replicated
 RS_GRID| Group size                                                           1

 RS_GRID| Information for grid number                                          4
 RS_GRID|   Bounds   1            -10       9                Points:          20
 RS_GRID|   Bounds   2            -10       9                Points:          20
 RS_GRID|   Bounds   3            -30      29                Points:          60
 RS_GRID| Real space fully replicated
 RS_GRID| Group size                                                           1

 RS_GRID| Information for grid number                                          5
 RS_GRID|   Bounds   1             -6       5                Points:          12
 RS_GRID|   Bounds   2             -6       5                Points:          12
 RS_GRID|   Bounds   3            -18      17                Points:          36
 RS_GRID| Real space fully replicated
 RS_GRID| Group size                                                           1

 Spin 1

 Number of electrons:                                                        300.160
 Number of occupied orbitals:                                                301
 Number of molecular orbitals:                                               832

 Spin 2

 Number of electrons:                                                        275.840
 Number of occupied orbitals:                                                276
 Number of molecular orbitals:                                               832

 Number of orbital functions:                                                832
 Number of independent orbital functions:                                    832

 Extrapolation method: initial_guess

 Atomic guess: The first density matrix is obtained in terms of atomic orbitals
               and electronic configurations assigned to each atomic kind

 Guess for atomic kind: Ni_i

 Electronic structure
    Total number of core electrons                                         10.00
    Total number of valence electrons                                      18.00
    Total number of electrons                                              28.00
    Multiplicity                                                         doublet
    Alpha Electrons
    S   [  1.00  1.00] 1.00  1.00
    P   [  3.00] 3.00
    D      4.40
    Beta Electrons
    S   [  1.00  1.00] 1.00  1.00
    P   [  3.00] 3.00
    D      3.60


 *******************************************************************************
                  Iteration          Convergence                     Energy [au]
 *******************************************************************************
                          1         1.51750                    -167.068932204718
                          2         15.5935                    -156.656530566819
                          3         2.37322                    -168.320625176021
                          4        0.215236                    -168.611142488999
                          5        0.864690E-01                -168.614185977773
                          6        0.204270E-01                -168.614864366588
                          7        0.117629E-02                -168.614962284536
                          8        0.143499E-02                -168.614962241165
                          9        0.165550E-03                -168.614962454733
                         10        0.801651E-03                -168.614962414936
                         11        0.526340E-03                -168.614962440154
                         12        0.114214E-03                -168.614962458210
                         13        0.974554E-04                -168.614962459061
                         14        0.103837E-03                -168.614962459937
                         15        0.922182E-04                -168.614962460311
                         16        0.489415E-04                -168.614962460739
                         17        0.376531E-04                -168.614962461148
                         18        0.319337E-04                -168.614962461185
                         19        0.537275E-04                -168.614962461068
                         20        0.409549E-04                -168.614962461145
                         21        0.226152E-04                -168.614962461237
                         22        0.174462E-04                -168.614962461257
                         23        0.165586E-04                -168.614962461260
                         24        0.160650E-04                -168.614962461262
                         25        0.113583E-04                -168.614962461280
                         26        0.503754E-05                -168.614962461287
                         27        0.239088E-05                -168.614962461289
                         28        0.206656E-05                -168.614962461289
                         29        0.678810E-06                -168.614962461289

 Energy components [Hartree]           Total Energy ::         -168.614962461289
                                        Band Energy ::          -26.570438398031
                                     Kinetic Energy ::           97.308645535822
                                   Potential Energy ::         -265.923607997111
                                      Virial (-V/T) ::            2.732785011371
                                        Core Energy ::         -299.569105195415
                                          XC Energy ::          -16.228812263913
                                     Coulomb Energy ::          147.182954998038
                       Total Pseudopotential Energy ::         -396.964091881334
                       Local Pseudopotential Energy ::         -362.650332264705
                    Nonlocal Pseudopotential Energy ::          -34.313759616629
                                        Confinement ::            0.863411500974

 Orbital energies  State     Spin  L     Occupation   Energy[a.u.]    Energy[eV]

                       1    alpha  0          1.000      -4.174802   -113.602130
                       2    alpha  0          1.000      -0.181779     -4.946449
                       1     beta  0          1.000      -4.138200   -112.606137
                       2     beta  0          1.000      -0.175997     -4.789129

                       1    alpha  1          3.000      -2.580817    -70.227599
                       1     beta  1          3.000      -2.545205    -69.258560

                       1    alpha  2          4.400      -0.328813     -8.947444
                       1     beta  2          3.600      -0.298561     -8.124256


 Total Electron Density at R=0:                                         0.030417

 Guess for atomic kind: Ni_b

 Electronic structure
    Total number of core electrons                                         10.00
    Total number of valence electrons                                      18.00
    Total number of electrons                                              28.00
    Multiplicity                                                         doublet
    Alpha Electrons
    S   [  1.00  1.00] 1.00  1.00
    P   [  3.00] 3.00
    D      4.36
    Beta Electrons
    S   [  1.00  1.00] 1.00  1.00
    P   [  3.00] 3.00
    D      3.64


 *******************************************************************************
                  Iteration          Convergence                     Energy [au]
 *******************************************************************************
                          1         1.51733                    -167.067710056109
                          2         15.4309                    -156.645282330152
                          3         2.34213                    -168.319596184225
                          4        0.208445                    -168.610139264713
                          5        0.824401E-01                -168.613121623029
                          6        0.179433E-01                -168.613734194110
                          7        0.255162E-02                -168.613812227785
                          8        0.280577E-02                -168.613812075584
                          9        0.822023E-04                -168.613812893913
                         10        0.154690E-02                -168.613812729337
                         11        0.542640E-03                -168.613812861638
                         12        0.157057E-03                -168.613812888711
                         13        0.130668E-03                -168.613812890246
                         14        0.143747E-03                -168.613812892045
                         15        0.158620E-03                -168.613812891233
                         16        0.476018E-03                -168.613812873909
                         17        0.104164E-03                -168.613812893236
                         18        0.983114E-04                -168.613812893508
                         19        0.902722E-04                -168.613812893706
                         20        0.914339E-04                -168.613812893697
                         21        0.877706E-04                -168.613812893760
                         22        0.496057E-04                -168.613812894179
                         23        0.459814E-04                -168.613812894239
                         24        0.412018E-04                -168.613812894272
                         25        0.404332E-04                -168.613812894277
                         26        0.397074E-04                -168.613812894282
                         27        0.340635E-04                -168.613812894339
                         28        0.177804E-04                -168.613812894423
                         29        0.180714E-04                -168.613812894422
                         30        0.180760E-04                -168.613812894423
                         31        0.178276E-04                -168.613812894424
                         32        0.156129E-04                -168.613812894429
                         33        0.258031E-05                -168.613812894449
                         34        0.227894E-05                -168.613812894450
                         35        0.245469E-05                -168.613812894450
                         36        0.251030E-05                -168.613812894450
                         37        0.304066E-05                -168.613812894449
                         38        0.152080E-05                -168.613812894450
                         39        0.124566E-05                -168.613812894450
                         40        0.816528E-06                -168.613812894450

 Energy components [Hartree]           Total Energy ::         -168.613812894450
                                        Band Energy ::          -26.569890293873
                                     Kinetic Energy ::           97.307087238001
                                   Potential Energy ::         -265.920900132451
                                      Virial (-V/T) ::            2.732800946780
                                        Core Energy ::         -299.568192261360
                                          XC Energy ::          -16.227496370806
                                     Coulomb Energy ::          147.181875737716
                       Total Pseudopotential Energy ::         -396.961620491603
                       Local Pseudopotential Energy ::         -362.648677454225
                    Nonlocal Pseudopotential Energy ::          -34.312943037379
                                        Confinement ::            0.863409922416

 Orbital energies  State     Spin  L     Occupation   Energy[a.u.]    Energy[eV]

                       1    alpha  0          1.000      -4.173095   -113.555694
                       2    alpha  0          1.000      -0.181501     -4.938880
                       1     beta  0          1.000      -4.140153   -112.659306
                       2     beta  0          1.000      -0.176298     -4.797301

                       1    alpha  1          3.000      -2.579156    -70.182414
                       1     beta  1          3.000      -2.547106    -69.310286

                       1    alpha  2          4.360      -0.327395     -8.908876
                       1     beta  2          3.640      -0.300168     -8.167996


 Total Electron Density at R=0:                                         0.030421

 Spin 1
 Re-scaling the density matrix to get the right number of electrons for spin 1
                  # Electrons              Trace(P)               Scaling factor
                        300.160             300.160                        1.000

 Spin 2
 Re-scaling the density matrix to get the right number of electrons for spin 2
                  # Electrons              Trace(P)               Scaling factor
                        275.840             275.840                        1.000


 SCF WAVEFUNCTION OPTIMIZATION

[...]
   110 Broy./Diag. 0.80E-01    1.5     0.00567090     -5417.7750352249  1.19E-02
   111 Broy./Diag. 0.80E-01    1.5     0.00786249     -5417.7795782853 -4.54E-03
   112 Broy./Diag. 0.80E-01    1.5     0.00908683     -5417.8007663882 -2.12E-02
   113 Broy./Diag. 0.80E-01    1.5     0.00264944     -5417.7993326548  1.43E-03
   114 Broy./Diag. 0.80E-01    1.5     0.00215247     -5417.7989818726  3.51E-04
   115 Broy./Diag. 0.80E-01    1.5     0.00118036     -5417.8054996803 -6.52E-03
   116 Broy./Diag. 0.80E-01    1.5     0.00806664     -5417.8191441266 -1.36E-02
   117 Broy./Diag. 0.80E-01    1.5     0.00327665     -5417.8030680487  1.61E-02
   118 Broy./Diag. 0.80E-01    1.5     0.00549621     -5417.7995749040  3.49E-03
   119 Broy./Diag. 0.80E-01    1.5     0.00361549     -5417.8047511552 -5.18E-03
   120 Broy./Diag. 0.80E-01    1.5     0.00062242     -5417.7958450593  8.91E-03
   121 Broy./Diag. 0.80E-01    1.5     0.00756618     -5417.7917812031  4.06E-03
   122 Broy./Diag. 0.80E-01    1.5     0.00260545     -5417.7060336850  8.57E-02
   123 Broy./Diag. 0.80E-01    1.5     0.00857748     -5417.7613856032 -5.54E-02
   124 Broy./Diag. 0.80E-01    1.5     0.00079654     -5417.6861703340  7.52E-02
   125 Broy./Diag. 0.80E-01    1.5     0.00152622     -5417.7196822946 -3.35E-02
   126 Broy./Diag. 0.80E-01    1.5     0.00162424     -5417.7227896757 -3.11E-03
   127 Broy./Diag. 0.80E-01    1.5     0.00088233     -5417.7008770853  2.19E-02
   128 Broy./Diag. 0.80E-01    1.5     0.00086265     -5417.7336281326 -3.28E-02
   129 Broy./Diag. 0.80E-01    1.5     0.00117669     -5417.7386864774 -5.06E-03
   130 Broy./Diag. 0.80E-01    1.5     0.00341651     -5417.7495329004 -1.08E-02
   131 Broy./Diag. 0.80E-01    1.5     0.00637810     -5417.6656532167  8.39E-02
   132 Broy./Diag. 0.80E-01    1.5     0.00278962     -5417.7209775485 -5.53E-02
   133 Broy./Diag. 0.80E-01    1.5     0.00203409     -5417.6631333799  5.78E-02
   134 Broy./Diag. 0.80E-01    1.5     0.00344496     -5417.6578085606  5.32E-03
   135 Broy./Diag. 0.80E-01    1.5     0.00097408     -5417.6276389625  3.02E-02
   136 Broy./Diag. 0.80E-01    1.5     0.00833512     -5417.6037517688  2.39E-02
   137 Broy./Diag. 0.80E-01    1.5     0.00135836     -5417.7063723269 -1.03E-01
   138 Broy./Diag. 0.80E-01    1.5     0.00315789     -5417.6781921028  2.82E-02
   139 Broy./Diag. 0.80E-01    1.5     0.00373603     -5417.6748562529  3.34E-03
   140 Broy./Diag. 0.80E-01    1.5     0.00616026     -5417.6709253887  3.93E-03
   141 Broy./Diag. 0.80E-01    1.5     0.00462278     -5417.6776000676 -6.67E-03
   142 Broy./Diag. 0.80E-01    1.5     0.00138893     -5417.5981021346  7.95E-02
   143 Broy./Diag. 0.80E-01    1.5     0.00188261     -5417.6301422240 -3.20E-02
   144 Broy./Diag. 0.80E-01    1.5     0.00302692     -5417.6623455732 -3.22E-02
   145 Broy./Diag. 0.80E-01    1.5     0.00580316     -5417.6741392496 -1.18E-02
   146 Broy./Diag. 0.80E-01    1.5     0.00366672     -5417.6909239392 -1.68E-02
   147 Broy./Diag. 0.80E-01    1.5     0.00155359     -5417.7042632945 -1.33E-02
   148 Broy./Diag. 0.80E-01    1.5     0.00319061     -5417.7064406110 -2.18E-03
   149 Broy./Diag. 0.80E-01    1.5     0.00302000     -5417.6658610220  4.06E-02
   150 Broy./Diag. 0.80E-01    1.5     0.00142166     -5417.6796240325 -1.38E-02
   151 Broy./Diag. 0.80E-01    1.5     0.00317079     -5417.6537461786  2.59E-02
   152 Broy./Diag. 0.80E-01    1.5     0.00241931     -5417.6785045225 -2.48E-02
   153 Broy./Diag. 0.80E-01    1.5     0.00150682     -5417.6762932139  2.21E-03
   154 Broy./Diag. 0.80E-01    1.5     0.00619990     -5417.6948753244 -1.86E-02
   155 Broy./Diag. 0.80E-01    1.5     0.00337358     -5417.7430333985 -4.82E-02
   156 Broy./Diag. 0.80E-01    1.5     0.00772161     -5417.7428174614  2.16E-04
   157 Broy./Diag. 0.80E-01    1.5     0.00159569     -5417.6810233094  6.18E-02
   158 Broy./Diag. 0.80E-01    1.5     0.00113338     -5417.6568130608  2.42E-02
   159 Broy./Diag. 0.80E-01    1.5     0.00365599     -5417.7595294029 -1.03E-01
   160 Broy./Diag. 0.80E-01    1.5     0.01062768     -5417.7521003099  7.43E-03
   161 Broy./Diag. 0.80E-01    1.5     0.00155211     -5417.7495988000  2.50E-03
   162 Broy./Diag. 0.80E-01    1.5     0.00437261     -5417.7992056594 -4.96E-02
   163 Broy./Diag. 0.80E-01    1.5     0.00036612     -5417.7709168746  2.83E-02
   164 Broy./Diag. 0.80E-01    1.5     0.00358192     -5417.7780947722 -7.18E-03
   165 Broy./Diag. 0.80E-01    1.5     0.00097548     -5417.8074455339 -2.94E-02
   166 Broy./Diag. 0.80E-01    1.5     0.00536437     -5417.8086760537 -1.23E-03
   167 Broy./Diag. 0.80E-01    1.5     0.00237132     -5417.7942968544  1.44E-02
   168 Broy./Diag. 0.80E-01    1.5     0.00167453     -5417.7853794787  8.92E-03
   169 Broy./Diag. 0.80E-01    1.5     0.00255704     -5417.7943721037 -8.99E-03
   170 Broy./Diag. 0.80E-01    1.5     0.00751374     -5417.7947489024 -3.77E-04
   171 Broy./Diag. 0.80E-01    1.5     0.00044004     -5417.7966804165 -1.93E-03
   172 Broy./Diag. 0.80E-01    1.5     0.00280293     -5417.8001155433 -3.44E-03
   173 Broy./Diag. 0.80E-01    1.5     0.00200556     -5417.7442286285  5.59E-02
   174 Broy./Diag. 0.80E-01    1.5     0.00062258     -5417.7804253264 -3.62E-02
   175 Broy./Diag. 0.80E-01    1.5     0.00875718     -5417.8000569291 -1.96E-02
   176 Broy./Diag. 0.80E-01    1.5     0.00066880     -5417.8049286877 -4.87E-03
   177 Broy./Diag. 0.80E-01    1.5     0.00085132     -5417.8089969202 -4.07E-03
   178 Broy./Diag. 0.80E-01    1.5     0.00076662     -5417.7859965244  2.30E-02
   179 Broy./Diag. 0.80E-01    1.5     0.00068438     -5417.7623661086  2.36E-02
   180 Broy./Diag. 0.80E-01    1.5     0.00075822     -5417.7653522611 -2.99E-03
   181 Broy./Diag. 0.80E-01    1.5     0.00222943     -5417.7719967503 -6.64E-03
   182 Broy./Diag. 0.80E-01    1.5     0.00102063     -5417.7337018559  3.83E-02
   183 Broy./Diag. 0.80E-01    1.5     0.00094183     -5417.7441515143 -1.04E-02
   184 Broy./Diag. 0.80E-01    1.5     0.00592910     -5417.7508382256 -6.69E-03
   185 Broy./Diag. 0.80E-01    1.5     0.00040009     -5417.7333322244  1.75E-02
   186 Broy./Diag. 0.80E-01    1.5     0.00134856     -5417.7735403148 -4.02E-02
   187 Broy./Diag. 0.80E-01    1.5     0.00106828     -5417.8675855781 -9.40E-02
   188 Broy./Diag. 0.80E-01    1.5     0.00169569     -5417.8926311164 -2.50E-02
   189 Broy./Diag. 0.80E-01    1.5     0.00032971     -5417.9001444742 -7.51E-03
   190 Broy./Diag. 0.80E-01    1.5     0.00195880     -5417.9037610035 -3.62E-03
   191 Broy./Diag. 0.80E-01    1.5     0.00092466     -5417.9220784123 -1.83E-02
   192 Broy./Diag. 0.80E-01    1.5     0.00227619     -5417.9697650291 -4.77E-02
   193 Broy./Diag. 0.80E-01    1.5     0.00063761     -5417.8944946961  7.53E-02
   194 Broy./Diag. 0.80E-01    1.5     0.00672182     -5417.9511936795 -5.67E-02
   195 Broy./Diag. 0.80E-01    1.5     0.00385708     -5417.8935987798  5.76E-02
   196 Broy./Diag. 0.80E-01    1.5     0.00132860     -5417.8825271664  1.11E-02
   197 Broy./Diag. 0.80E-01    1.5     0.00170738     -5417.8200794213  6.24E-02
   198 Broy./Diag. 0.80E-01    1.5     0.00030307     -5417.8265136781 -6.43E-03
   199 Broy./Diag. 0.80E-01    1.5     0.00119374     -5417.8119861908  1.45E-02
   200 Broy./Diag. 0.80E-01    1.5     0.00082441     -5417.8045294959  7.46E-03
   201 Broy./Diag. 0.80E-01    1.5     0.00103412     -5417.7947447928  9.78E-03
   202 Broy./Diag. 0.80E-01    1.5     0.00026837     -5417.8092003281 -1.45E-02
   203 Broy./Diag. 0.80E-01    1.5     0.00056023     -5417.7871195331  2.21E-02
   204 Broy./Diag. 0.80E-01    1.5     0.00157914     -5417.7657814494  2.13E-02
   205 Broy./Diag. 0.80E-01    1.5     0.00270681     -5417.8458676580 -8.01E-02
   206 Broy./Diag. 0.80E-01    1.5     0.00096008     -5417.8329254909  1.29E-02
   207 Broy./Diag. 0.80E-01    1.5     0.00108667     -5417.8357652339 -2.84E-03
   208 Broy./Diag. 0.80E-01    1.5     0.00176237     -5417.8531905005 -1.74E-02
   209 Broy./Diag. 0.80E-01    1.5     0.00148976     -5417.8730896754 -1.99E-02
   210 Broy./Diag. 0.80E-01    1.5     0.00072036     -5417.8868377226 -1.37E-02
   211 Broy./Diag. 0.80E-01    1.5     0.00033094     -5417.9196088222 -3.28E-02
   212 Broy./Diag. 0.80E-01    1.5     0.00171180     -5417.9076539594  1.20E-02
   213 Broy./Diag. 0.80E-01    1.5     0.00059704     -5417.8940107732  1.36E-02
   214 Broy./Diag. 0.80E-01    1.5     0.00195793     -5417.8480431409  4.60E-02
   215 Broy./Diag. 0.80E-01    1.5     0.00105010     -5417.8455459905  2.50E-03
   216 Broy./Diag. 0.80E-01    1.5     0.00111755     -5417.8450864595  4.60E-04
   217 Broy./Diag. 0.80E-01    1.5     0.00168854     -5417.8572623610 -1.22E-02
   218 Broy./Diag. 0.80E-01    1.5     0.00073323     -5417.8300845230  2.72E-02
   219 Broy./Diag. 0.80E-01    1.5     0.00067378     -5417.8417803737 -1.17E-02
   220 Broy./Diag. 0.80E-01    1.5     0.00142190     -5417.8022073057  3.96E-02
   221 Broy./Diag. 0.80E-01    1.5     0.00122866     -5417.8141487299 -1.19E-02
   222 Broy./Diag. 0.80E-01    1.5     0.00094802     -5417.7961909509  1.80E-02
   223 Broy./Diag. 0.80E-01    1.5     0.00143643     -5417.8025146478 -6.32E-03
   224 Broy./Diag. 0.80E-01    1.5     0.00207493     -5417.8692733958 -6.68E-02
   225 Broy./Diag. 0.80E-01    1.5     0.00028092     -5417.8958671450 -2.66E-02
   226 Broy./Diag. 0.80E-01    1.5     0.00444756     -5417.9122235979 -1.64E-02
   227 Broy./Diag. 0.80E-01    1.5     0.00116665     -5417.9471660356 -3.49E-02
   228 Broy./Diag. 0.80E-01    1.5     0.00108295     -5417.9070585968  4.01E-02
   229 Broy./Diag. 0.80E-01    1.5     0.00431598     -5417.8776754888  2.94E-02
   230 Broy./Diag. 0.80E-01    1.5     0.00799652     -5417.9964996770 -1.19E-01
   231 Broy./Diag. 0.80E-01    1.5     0.00554079     -5417.9950762949  1.42E-03
   232 Broy./Diag. 0.80E-01    1.5     0.00144503     -5417.9371221138  5.80E-02
   233 Broy./Diag. 0.80E-01    1.5     0.00111236     -5417.8160796520  1.21E-01
   234 Broy./Diag. 0.80E-01    1.5     0.00127887     -5417.6818005221  1.34E-01
   235 Broy./Diag. 0.80E-01    1.5     0.00109493     -5417.6975187228 -1.57E-02
   236 Broy./Diag. 0.80E-01    1.5     0.00195137     -5417.7728083621 -7.53E-02
   237 Broy./Diag. 0.80E-01    1.5     0.00371776     -5417.7547542362  1.81E-02
   238 Broy./Diag. 0.80E-01    1.5     0.00347526     -5417.8141349640 -5.94E-02
   239 Broy./Diag. 0.80E-01    1.5     0.00046787     -5417.8177490119 -3.61E-03
   240 Broy./Diag. 0.80E-01    1.5     0.00055751     -5417.8234264265 -5.68E-03
   241 Broy./Diag. 0.80E-01    1.5     0.00197795     -5417.8059924844  1.74E-02
   242 Broy./Diag. 0.80E-01    1.5     0.00127232     -5417.7702094900  3.58E-02
   243 Broy./Diag. 0.80E-01    1.5     0.00047105     -5417.7420933817  2.81E-02
   244 Broy./Diag. 0.80E-01    1.5     0.00094725     -5417.7447291293 -2.64E-03
   245 Broy./Diag. 0.80E-01    1.5     0.00770665     -5417.7540163648 -9.29E-03
   246 Broy./Diag. 0.80E-01    1.5     0.00276075     -5417.7232679979  3.07E-02
   247 Broy./Diag. 0.80E-01    1.5     0.00228346     -5417.7262519683 -2.98E-03
   248 Broy./Diag. 0.80E-01    1.5     0.00324259     -5417.7460626577 -1.98E-02
   249 Broy./Diag. 0.80E-01    1.5     0.00710057     -5417.7556115456 -9.55E-03
   250 Broy./Diag. 0.80E-01    1.5     0.00067654     -5417.8043456859 -4.87E-02
   251 Broy./Diag. 0.80E-01    1.5     0.00066342     -5417.8030493672  1.30E-03
   252 Broy./Diag. 0.80E-01    1.5     0.00183552     -5417.7889709202  1.41E-02
   253 Broy./Diag. 0.80E-01    1.5     0.00060367     -5417.7841952020  4.78E-03
   254 Broy./Diag. 0.80E-01    1.5     0.00195183     -5417.7860381163 -1.84E-03
   255 Broy./Diag. 0.80E-01    1.5     0.00155342     -5417.7930314525 -6.99E-03
   256 Broy./Diag. 0.80E-01    1.5     0.00229299     -5417.8098621994 -1.68E-02
   257 Broy./Diag. 0.80E-01    1.5     0.00095721     -5417.7884174551  2.14E-02
   258 Broy./Diag. 0.80E-01    1.5     0.00256606     -5417.7805777916  7.84E-03
   259 Broy./Diag. 0.80E-01    1.5     0.00362431     -5417.7757097280  4.87E-03
   260 Broy./Diag. 0.80E-01    1.5     0.00066777     -5417.7697102848  6.00E-03
   261 Broy./Diag. 0.80E-01    1.5     0.00679442     -5417.7613629691  8.35E-03
   262 Broy./Diag. 0.80E-01    1.5     0.00412133     -5417.7549654977  6.40E-03
   263 Broy./Diag. 0.80E-01    1.5     0.00090804     -5417.7412023650  1.38E-02
   264 Broy./Diag. 0.80E-01    1.5     0.00072734     -5417.7369649048  4.24E-03
   265 Broy./Diag. 0.80E-01    1.5     0.00248969     -5417.7423174240 -5.35E-03
   266 Broy./Diag. 0.80E-01    1.5     0.00156748     -5417.7384602779  3.86E-03
   267 Broy./Diag. 0.80E-01    1.5     0.00160250     -5417.7146015665  2.39E-02
   268 Broy./Diag. 0.80E-01    1.5     0.00160247     -5417.7181758263 -3.57E-03
   269 Broy./Diag. 0.80E-01    1.5     0.00058414     -5417.7408721949 -2.27E-02
   270 Broy./Diag. 0.80E-01    1.5     0.00133515     -5417.7469129071 -6.04E-03
   271 Broy./Diag. 0.80E-01    1.5     0.00096717     -5417.7562877617 -9.37E-03
   272 Broy./Diag. 0.80E-01    1.5     0.00216407     -5417.7700784188 -1.38E-02
   273 Broy./Diag. 0.80E-01    1.5     0.00030277     -5417.7642026089  5.88E-03
   274 Broy./Diag. 0.80E-01    1.5     0.00056875     -5417.7633775201  8.25E-04
   275 Broy./Diag. 0.80E-01    1.5     0.00250075     -5417.7701813175 -6.80E-03
   276 Broy./Diag. 0.80E-01    1.5     0.00140242     -5417.7588886485  1.13E-02
   277 Broy./Diag. 0.80E-01    1.5     0.00113464     -5417.7642513609 -5.36E-03
   278 Broy./Diag. 0.80E-01    1.5     0.00172263     -5417.7711152540 -6.86E-03
   279 Broy./Diag. 0.80E-01    1.5     0.00086088     -5417.7654123619  5.70E-03
   280 Broy./Diag. 0.80E-01    1.5     0.00200106     -5417.7497302213  1.57E-02
   281 Broy./Diag. 0.80E-01    1.5     0.00063660     -5417.7462295833  3.50E-03
   282 Broy./Diag. 0.80E-01    1.5     0.00475477     -5417.7393591483  6.87E-03
   283 Broy./Diag. 0.80E-01    1.5     0.00087791     -5417.7555251351 -1.62E-02
   284 Broy./Diag. 0.80E-01    1.5     0.00538403     -5417.7735574893 -1.80E-02
   285 Broy./Diag. 0.80E-01    1.5     0.00231894     -5417.7762225116 -2.67E-03
   286 Broy./Diag. 0.80E-01    1.5     0.00171192     -5417.7443008674  3.19E-02
   287 Broy./Diag. 0.80E-01    1.5     0.00082420     -5417.7496256117 -5.32E-03
   288 Broy./Diag. 0.80E-01    1.5     0.00258940     -5417.7381047346  1.15E-02
   289 Broy./Diag. 0.80E-01    1.5     0.00048547     -5417.7761720266 -3.81E-02
   290 Broy./Diag. 0.80E-01    1.5     0.00132419     -5417.8082931450 -3.21E-02
   291 Broy./Diag. 0.80E-01    1.5     0.00112115     -5417.7481828970  6.01E-02
   292 Broy./Diag. 0.80E-01    1.5     0.00289991     -5417.7364886188  1.17E-02
   293 Broy./Diag. 0.80E-01    1.5     0.00091317     -5417.7471023714 -1.06E-02
   294 Broy./Diag. 0.80E-01    1.5     0.00275889     -5417.7416483670  5.45E-03
   295 Broy./Diag. 0.80E-01    1.5     0.00199182     -5417.7460948072 -4.45E-03
   296 Broy./Diag. 0.80E-01    1.5     0.00149902     -5417.7482005376 -2.11E-03
   297 Broy./Diag. 0.80E-01    1.5     0.00115419     -5417.7318799809  1.63E-02
   298 Broy./Diag. 0.80E-01    1.5     0.00067804     -5417.7337048624 -1.82E-03
   299 Broy./Diag. 0.80E-01    1.5     0.00105688     -5417.7360125297 -2.31E-03
   300 Broy./Diag. 0.80E-01    1.5     0.00263577     -5417.7408635146 -4.85E-03
   301 Broy./Diag. 0.80E-01    1.5     0.00283239     -5417.7331434341  7.72E-03
   302 Broy./Diag. 0.80E-01    1.5     0.00050904     -5417.7515041913 -1.84E-02
   303 Broy./Diag. 0.80E-01    1.5     0.00177507     -5417.7604935149 -8.99E-03
   304 Broy./Diag. 0.80E-01    1.5     0.00040197     -5417.7647024221 -4.21E-03
   305 Broy./Diag. 0.80E-01    1.5     0.00192539     -5417.7639747642  7.28E-04
   306 Broy./Diag. 0.80E-01    1.5     0.00195927     -5417.7597039262  4.27E-03
   307 Broy./Diag. 0.80E-01    1.5     0.00047970     -5417.7568636551  2.84E-03
   308 Broy./Diag. 0.80E-01    1.5     0.00155314     -5417.7557173726  1.15E-03
   309 Broy./Diag. 0.80E-01    1.5     0.00417579     -5417.7524443153  3.27E-03
   310 Broy./Diag. 0.80E-01    1.5     0.00085578     -5417.7522941212  1.50E-04
   311 Broy./Diag. 0.80E-01    1.5     0.00205577     -5417.7506770242  1.62E-03
   312 Broy./Diag. 0.80E-01    1.5     0.00244121     -5417.7354002506  1.53E-02
   313 Broy./Diag. 0.80E-01    1.5     0.00216107     -5417.7608439203 -2.54E-02
   314 Broy./Diag. 0.80E-01    1.5     0.00481200     -5417.7542937923  6.55E-03
   315 Broy./Diag. 0.80E-01    1.5     0.00225622     -5417.7725036116 -1.82E-02
   316 Broy./Diag. 0.80E-01    1.5     0.00250846     -5417.7689677362  3.54E-03
   317 Broy./Diag. 0.80E-01    1.5     0.00418295     -5417.7546391849  1.43E-02
   318 Broy./Diag. 0.80E-01    1.5     0.00227574     -5417.7477387808  6.90E-03
   319 Broy./Diag. 0.80E-01    1.5     0.00199134     -5417.7314617063  1.63E-02
   320 Broy./Diag. 0.80E-01    1.5     0.00048874     -5417.7267275157  4.73E-03
   321 Broy./Diag. 0.80E-01    1.5     0.00315968     -5417.7185860341  8.14E-03
   322 Broy./Diag. 0.80E-01    1.5     0.00255233     -5417.7162045971  2.38E-03
   323 Broy./Diag. 0.80E-01    1.5     0.00313987     -5417.7008078346  1.54E-02
   324 Broy./Diag. 0.80E-01    1.5     0.00320156     -5417.7019069322 -1.10E-03
   325 Broy./Diag. 0.80E-01    1.5     0.00380434     -5417.7149960332 -1.31E-02
   326 Broy./Diag. 0.80E-01    1.5     0.00317618     -5417.7139350621  1.06E-03
   327 Broy./Diag. 0.80E-01    1.5     0.00296817     -5417.6970492554  1.69E-02
   328 Broy./Diag. 0.80E-01    1.5     0.00720094     -5417.6712804217  2.58E-02
   329 Broy./Diag. 0.80E-01    1.5     0.00358531     -5417.6344932100  3.68E-02
   330 Broy./Diag. 0.80E-01    1.5     0.00938833     -5417.6369815015 -2.49E-03
   331 Broy./Diag. 0.80E-01    1.5     0.00267626     -5417.6959029202 -5.89E-02
   332 Broy./Diag. 0.80E-01    1.5     0.00169941     -5417.6973378557 -1.43E-03
   333 Broy./Diag. 0.80E-01    1.5     0.00045026     -5417.7121225841 -1.48E-02
   334 Broy./Diag. 0.80E-01    1.5     0.00082143     -5417.7209846372 -8.86E-03
   335 Broy./Diag. 0.80E-01    1.5     0.00066751     -5417.7380386949 -1.71E-02
   336 Broy./Diag. 0.80E-01    1.5     0.00058799     -5417.7584466945 -2.04E-02
   337 Broy./Diag. 0.80E-01    1.5     0.00053306     -5417.7820772937 -2.36E-02
   338 Broy./Diag. 0.80E-01    1.5     0.00178937     -5417.7935207697 -1.14E-02
   339 Broy./Diag. 0.80E-01    1.5     0.00028935     -5417.7906783597  2.84E-03
   340 Broy./Diag. 0.80E-01    1.5     0.00319616     -5417.7859009720  4.78E-03
   341 Broy./Diag. 0.80E-01    1.5     0.00152832     -5417.8008941336 -1.50E-02
   342 Broy./Diag. 0.80E-01    1.5     0.00048868     -5417.7760743862  2.48E-02
   343 Broy./Diag. 0.80E-01    1.5     0.00224278     -5417.7829837288 -6.91E-03
   344 Broy./Diag. 0.80E-01    1.5     0.00387438     -5417.7644688358  1.85E-02
   345 Broy./Diag. 0.80E-01    1.5     0.00062200     -5417.7846705274 -2.02E-02
   346 Broy./Diag. 0.80E-01    1.5     0.00091633     -5417.7876686719 -3.00E-03
   347 Broy./Diag. 0.80E-01    1.5     0.00196883     -5417.7890852368 -1.42E-03
   348 Broy./Diag. 0.80E-01    1.5     0.00839128     -5417.7827597698  6.33E-03
   349 Broy./Diag. 0.80E-01    1.5     0.00064258     -5417.7795070691  3.25E-03
   350 Broy./Diag. 0.80E-01    1.5     0.00402472     -5417.7681537005  1.14E-02
   351 Broy./Diag. 0.80E-01    1.5     0.00303028     -5417.7986477246 -3.05E-02
   352 Broy./Diag. 0.80E-01    1.5     0.00130128     -5417.8078036457 -9.16E-03
   353 Broy./Diag. 0.80E-01    1.5     0.00056842     -5417.7895390600  1.83E-02
   354 Broy./Diag. 0.80E-01    1.5     0.00097279     -5417.7870091142  2.53E-03
   355 Broy./Diag. 0.80E-01    1.5     0.00135448     -5417.7814780825  5.53E-03
