 DBCSR| CPU Multiplication driver                                           XSMM (U)
 DBCSR| Multrec recursion limit                                              512 (U)
 DBCSR| Multiplication stack size                                           1000 (D)
 DBCSR| Maximum elements for images                                    UNLIMITED (U)
 DBCSR| Multiplicative factor virtual images                                   1 (U)
 DBCSR| Use multiplication densification                                       T (D)
 DBCSR| Multiplication size stacks                                             3 (U)
 DBCSR| Use memory pool for CPU allocation                                     F (U)
 DBCSR| Number of 3D layers                                               SINGLE (U)
 DBCSR| Use MPI memory allocation                                              F (U)
 DBCSR| Use RMA algorithm                                                      F (U)
 DBCSR| Use Communication thread                                               T (U)
 DBCSR| Communication thread load                                             87 (D)
 DBCSR| MPI: My process id                                                     0
 DBCSR| MPI: Number of processes                                             128
 DBCSR| OMP: Current number of threads                                         1
 DBCSR| OMP: Max number of threads                                             1
 DBCSR| Split modifier for TAS multiplication algorithm                  1.0E+00 (U)


  **** **** ******  **  PROGRAM STARTED AT               2023-02-14 19:08:53.447
 ***** ** ***  *** **   PROGRAM STARTED ON                             nid001924
 **    ****   ******    PROGRAM STARTED BY                                cahart
 ***** **    ** ** **   PROGRAM PROCESS ID                                 63660
  **** **  *******  **  PROGRAM STARTED IN /mnt/lustre/a2fs-work2/work/e05/e05/c
                                           ahart/postdoc/masters/ni/archer2/slab
                                           /optimise/alpha-beta/scf_1e-3_mos-100
                                           0_temp-2000_spin-0.7-0.5_periodic-xyz
                                           /search/4.0E-01_1.0

 CP2K| version string:                 CP2K version 2023.1 (Development Version)
 CP2K| source code revision number:                                  git:964cd58
 CP2K| cp2kflags: omp libint fftw3 libxc elpa parallel scalapack xsmm plumed2 mk
 CP2K|            l
 CP2K| is freely available from                            https://www.cp2k.org/
 CP2K| Program compiled at                          Mon 13 Feb 17:05:14 GMT 2023
 CP2K| Program compiled on                                                  ln01
 CP2K| Program compiled for                                              ARCHER2
 CP2K| Data directory path    /work/e05/e05/cahart/cp2k/cp2k-2023.1/cp2k-2023.1-
 CP2K| Input file name                                                  cp2k.inp

 GLOBAL| Force Environment number                                              1
 GLOBAL| Basis set file name                                        BASIS_MOLOPT
 GLOBAL| Potential file name                                      GTH_POTENTIALS
 GLOBAL| MM Potential file name                                     MM_POTENTIAL
 GLOBAL| Coordinate file name                                      __STD_INPUT__
 GLOBAL| Method name                                                        CP2K
 GLOBAL| Project name                                                    Ni_bulk
 GLOBAL| Run type                                                         ENERGY
 GLOBAL| FFT library                                                       FFTW3
 GLOBAL| Diagonalization library                                            ELPA
 GLOBAL| DGEMM library                                                      BLAS
 GLOBAL| Minimum number of eigenvectors for ELPA usage                        16
 GLOBAL| Orthonormality check for eigenvectors                          DISABLED
 GLOBAL| Matrix multiplication library                                 ScaLAPACK
 GLOBAL| All-to-all communication in single precision                          F
 GLOBAL| FFTs using library dependent lengths                                  F
 GLOBAL| Grid backend                                                       AUTO
 GLOBAL| Global print level                                               MEDIUM
 GLOBAL| MPI I/O enabled                                                       T
 GLOBAL| Total number of message passing processes                           128
 GLOBAL| Number of threads for this process                                    1
 GLOBAL| This output is from process                                           0
 GLOBAL| Stack size for threads created by OpenMP (OMP_STACKSIZE)        default
 GLOBAL| CPU model name                          AMD EPYC 7742 64-Core Processor
 GLOBAL| CPUID                                                              1002

 MEMORY| system memory details [Kb]
 MEMORY|                        rank 0           min           max       average
 MEMORY| MemTotal            263528084     263528084     263528084     263528084
 MEMORY| MemFree             239057788     239057788     239057788     239057788
 MEMORY| Buffers                 25204         25204         25204         25204
 MEMORY| Cached                 587808        587808        587808        587808
 MEMORY| Slab                  1535740       1535740       1535740       1535740
 MEMORY| SReclaimable           102020        102020        102020        102020
 MEMORY| MemLikelyFree       239772820     239772820     239772820     239772820


 *** Fundamental physical constants (SI units) ***

 *** Literature: B. J. Mohr and B. N. Taylor,
 ***             CODATA recommended values of the fundamental physical
 ***             constants: 2006, Web Version 5.1
 ***             http://physics.nist.gov/constants

 Speed of light in vacuum [m/s]                             2.99792458000000E+08
 Magnetic constant or permeability of vacuum [N/A**2]       1.25663706143592E-06
 Electric constant or permittivity of vacuum [F/m]          8.85418781762039E-12
 Planck constant (h) [J*s]                                  6.62606896000000E-34
 Planck constant (h-bar) [J*s]                              1.05457162825177E-34
 Elementary charge [C]                                      1.60217648700000E-19
 Electron mass [kg]                                         9.10938215000000E-31
 Electron g factor [ ]                                     -2.00231930436220E+00
 Proton mass [kg]                                           1.67262163700000E-27
 Fine-structure constant                                    7.29735253760000E-03
 Rydberg constant [1/m]                                     1.09737315685270E+07
 Avogadro constant [1/mol]                                  6.02214179000000E+23
 Boltzmann constant [J/K]                                   1.38065040000000E-23
 Atomic mass unit [kg]                                      1.66053878200000E-27
 Bohr radius [m]                                            5.29177208590000E-11

 *** Conversion factors ***

 [u] -> [a.u.]                                              1.82288848426455E+03
 [Angstrom] -> [Bohr] = [a.u.]                              1.88972613288564E+00
 [a.u.] = [Bohr] -> [Angstrom]                              5.29177208590000E-01
 [a.u.] -> [s]                                              2.41888432650478E-17
 [a.u.] -> [fs]                                             2.41888432650478E-02
 [a.u.] -> [J]                                              4.35974393937059E-18
 [a.u.] -> [N]                                              8.23872205491840E-08
 [a.u.] -> [K]                                              3.15774647902944E+05
 [a.u.] -> [kJ/mol]                                         2.62549961709828E+03
 [a.u.] -> [kcal/mol]                                       6.27509468713739E+02
 [a.u.] -> [Pa]                                             2.94210107994716E+13
 [a.u.] -> [bar]                                            2.94210107994716E+08
 [a.u.] -> [atm]                                            2.90362800883016E+08
 [a.u.] -> [eV]                                             2.72113838565563E+01
 [a.u.] -> [Hz]                                             6.57968392072181E+15
 [a.u.] -> [1/cm] (wave numbers)                            2.19474631370540E+05
 [a.u./Bohr**2] -> [1/cm]                                   5.14048714338585E+03
 

 CELL_TOP| Volume [angstrom^3]:                                       983.249569
 CELL_TOP| Vector a [angstrom     7.012     0.000     0.000   |a| =     7.011596
 CELL_TOP| Vector b [angstrom     0.000     7.012     0.000   |b| =     7.011596
 CELL_TOP| Vector c [angstrom     0.000     0.000    20.000   |c| =    20.000000
 CELL_TOP| Angle (b,c), alpha [degree]:                                90.000000
 CELL_TOP| Angle (a,c), beta  [degree]:                                90.000000
 CELL_TOP| Angle (a,b), gamma [degree]:                                90.000000
 CELL_TOP| Numerically orthorhombic:                                         YES
 CELL_TOP| Periodicity                                                       XYZ

 GENERATE|  Preliminary Number of Bonds generated:                             0
 GENERATE|  Achieved consistency in connectivity generation.

 CELL| Volume [angstrom^3]:                                           983.249569
 CELL| Vector a [angstrom]:       7.012     0.000     0.000   |a| =     7.011596
 CELL| Vector b [angstrom]:       0.000     7.012     0.000   |b| =     7.011596
 CELL| Vector c [angstrom]:       0.000     0.000    20.000   |c| =    20.000000
 CELL| Angle (b,c), alpha [degree]:                                    90.000000
 CELL| Angle (a,c), beta  [degree]:                                    90.000000
 CELL| Angle (a,b), gamma [degree]:                                    90.000000
 CELL| Numerically orthorhombic:                                             YES
 CELL| Periodicity                                                           XYZ

 CELL_REF| Volume [angstrom^3]:                                       983.249569
 CELL_REF| Vector a [angstrom     7.012     0.000     0.000   |a| =     7.011596
 CELL_REF| Vector b [angstrom     0.000     7.012     0.000   |b| =     7.011596
 CELL_REF| Vector c [angstrom     0.000     0.000    20.000   |c| =    20.000000
 CELL_REF| Angle (b,c), alpha [degree]:                                90.000000
 CELL_REF| Angle (a,c), beta  [degree]:                                90.000000
 CELL_REF| Angle (a,b), gamma [degree]:                                90.000000
 CELL_REF| Numerically orthorhombic:                                         YES
 CELL_REF| Periodicity                                                       XYZ

 *** WARNING in cryssym.F:165 :: Symmetry library SPGLIB not available ***


 *******************************************************************************
                                    Kpoints
 *******************************************************************************
 BRILLOUIN| K-point scheme                                        Monkhorst-Pack
 BRILLOUIN| K-Point grid                                             4    4    1
 BRILLOUIN| Accuracy in Symmetry determination                      0.100000E-05
 BRILLOUIN| K-Point point group symmetrization                               OFF
 BRILLOUIN| Wavefunction type                                            COMPLEX
 BRILLOUIN| List of Kpoints [2 Pi/Bohr]                                        8
 BRILLOUIN| Number           Weight            X              Y              Z
 BRILLOUIN|     1           0.12500       -0.37500       -0.37500        0.00000
 BRILLOUIN|     2           0.12500       -0.37500       -0.12500        0.00000
 BRILLOUIN|     3           0.12500       -0.37500        0.12500        0.00000
 BRILLOUIN|     4           0.12500       -0.37500        0.37500        0.00000
 BRILLOUIN|     5           0.12500       -0.12500       -0.37500        0.00000
 BRILLOUIN|     6           0.12500       -0.12500       -0.12500        0.00000
 BRILLOUIN|     7           0.12500       -0.12500        0.12500        0.00000
 BRILLOUIN|     8           0.12500       -0.12500        0.37500        0.00000
 *******************************************************************************

 *******************************************************************************
 *******************************************************************************
 **                                                                           **
 **     #####                         ##              ##                      **
 **    ##   ##            ##          ##              ##                      **
 **   ##     ##                       ##            ######                    **
 **   ##     ##  ##   ##  ##   #####  ##  ##   ####   ##    #####    #####    **
 **   ##     ##  ##   ##  ##  ##      ## ##   ##      ##   ##   ##  ##   ##   **
 **   ##  ## ##  ##   ##  ##  ##      ####     ###    ##   ######   ######    **
 **    ##  ###   ##   ##  ##  ##      ## ##      ##   ##   ##       ##        **
 **     #######   #####   ##   #####  ##  ##  ####    ##    #####   ##        **
 **           ##                                                    ##        **
 **                                                                           **
 **                                                ... make the atoms dance   **
 **                                                                           **
 **            Copyright (C) by CP2K developers group (2000-2023)             **
 **                      J. Chem. Phys. 152, 194103 (2020)                    **
 **                                                                           **
 *******************************************************************************

 *** WARNING in qs_environment.F:1456 :: Number of electrons will be ***
 *** overwritten by NELEC_ALPHA and NELEC_BETA, multiplicity will be ***
 *** ignored.                                                        ***

 Number of electrons should be                                               576
 Sum of NELEC_ALPHA and NELEC_BETA is                                    576.000

 *** WARNING in qs_environment.F:1488 :: NELEC_ALPHA is not an integer, ***
 *** many features will not be supported.                               ***


 *** WARNING in qs_environment.F:1500 :: NELEC_BETA is not an integer, ***
 *** many features will not be supported.                              ***


 *** WARNING in qs_environment.F:1532 :: More ADDED_MOs requested for beta ***
 *** spin than available.                                                  ***


 *** WARNING in qs_environment.F:1548 :: More added MOs requested than     ***
 *** available. The full set of unoccupied MOs will be used. Use           ***
 *** 'ADDED_MOS -1' to always use all available MOs and to get rid of this ***
 *** warning.                                                              ***


 DFT| Spin unrestricted (spin-polarized) Kohn-Sham calculation               UKS
 DFT| Multiplicity                                                             1
 DFT| Number of spin states                                                    2
 DFT| Charge                                                                   0
 DFT| Self-interaction correction (SIC)                                       NO
 DFT| Cutoffs: density                                              1.000000E-10
 DFT|          gradient                                             1.000000E-10
 DFT|          tau                                                  1.000000E-10
 DFT|          cutoff_smoothing_range                               0.000000E+00
 DFT| XC density smoothing                                                  NONE
 DFT| XC derivatives                                                          PW

 FUNCTIONAL| PBE:
 FUNCTIONAL| J.P.Perdew, K.Burke, M.Ernzerhof, Phys. Rev. Letter, vol. 77, n 18,
 FUNCTIONAL|  pp. 3865-3868, (1996){spin polarized}                             

 vdW POTENTIAL|                                                   Pair Potential
 vdW POTENTIAL|          DFT-D3 (Version 3.1)
 vdW POTENTIAL|          Potential Form: S. Grimme et al, JCP 132: 154104 (2010)
 vdW POTENTIAL|          Zero Damping
 vdW POTENTIAL|          Cutoff Radius [Bohr]:                             20.00
 vdW POTENTIAL|          s6 Scaling Factor:                               1.0000
 vdW POTENTIAL|          sr6 Scaling Factor:                              1.2170
 vdW POTENTIAL|          s8 Scaling Factor:                               0.7220
 vdW POTENTIAL|          Cutoff for CN calculation:                   0.1000E-05

 QS| Method:                                                                 GPW
 QS| Density plane wave grid type                        NON-SPHERICAL FULLSPACE
 QS| Number of grid levels:                                                    5
 QS| Density cutoff [a.u.]:                                                300.0
 QS| Multi grid cutoff [a.u.]: 1) grid level                               300.0
 QS|                           2) grid level                               100.0
 QS|                           3) grid level                                33.3
 QS|                           4) grid level                                11.1
 QS|                           5) grid level                                 3.7
 QS| Grid level progression factor:                                          3.0
 QS| Relative density cutoff [a.u.]:                                        30.0
 QS| Interaction thresholds: eps_pgf_orb:                                1.0E-06
 QS|                         eps_filter_matrix:                          0.0E+00
 QS|                         eps_core_charge:                            1.0E-14
 QS|                         eps_rho_gspace:                             1.0E-12
 QS|                         eps_rho_rspace:                             1.0E-12
 QS|                         eps_gvg_rspace:                             1.0E-06
 QS|                         eps_ppl:                                    1.0E-02
 QS|                         eps_ppnl:                                   1.0E-08


 ATOMIC KIND INFORMATION

  1. Atomic kind: Ni_i                                  Number of atoms:      16

     Orbital Basis Set                                        DZVP-MOLOPT-SR-GTH

       Number of orbital shell sets:                                           1
       Number of orbital shells:                                               8
       Number of primitive Cartesian functions:                                6
       Number of Cartesian basis functions:                                   31
       Number of spherical basis functions:                                   26
       Norm type:                                                              2

       Normalised Cartesian orbitals:

                        Set   Shell   Orbital            Exponent    Coefficient

                          1       1    2s               10.077428      -0.684558
                                                         5.847736      -0.844524
                                                         2.494033       1.088856
                                                         0.988355       0.395503
                                                         0.344978       0.010224
                                                         0.099466      -0.003250

                          1       2    3s               10.077428       0.096747
                                                         5.847736       0.162504
                                                         2.494033      -0.297192
                                                         0.988355      -0.319752
                                                         0.344978       0.088318
                                                         0.099466       0.118587

                          1       3    4s               10.077428       0.036437
                                                         5.847736      -0.381480
                                                         2.494033       0.003759
                                                         0.988355      -1.048256
                                                         0.344978       0.855825
                                                         0.099466      -0.176350

                          1       4    3px              10.077428      -3.133913
                                                         5.847736       3.027656
                                                         2.494033       2.353227
                                                         0.988355       0.554184
                                                         0.344978       0.019462
                                                         0.099466      -0.000291
                          1       4    3py              10.077428      -3.133913
                                                         5.847736       3.027656
                                                         2.494033       2.353227
                                                         0.988355       0.554184
                                                         0.344978       0.019462
                                                         0.099466      -0.000291
                          1       4    3pz              10.077428      -3.133913
                                                         5.847736       3.027656
                                                         2.494033       2.353227
                                                         0.988355       0.554184
                                                         0.344978       0.019462
                                                         0.099466      -0.000291

                          1       5    4px              10.077428      -0.112729
                                                         5.847736      -0.114008
                                                         2.494033      -0.347303
                                                         0.988355      -0.110323
                                                         0.344978       0.154096
                                                         0.099466       0.058386
                          1       5    4py              10.077428      -0.112729
                                                         5.847736      -0.114008
                                                         2.494033      -0.347303
                                                         0.988355      -0.110323
                                                         0.344978       0.154096
                                                         0.099466       0.058386
                          1       5    4pz              10.077428      -0.112729
                                                         5.847736      -0.114008
                                                         2.494033      -0.347303
                                                         0.988355      -0.110323
                                                         0.344978       0.154096
                                                         0.099466       0.058386

                          1       6    4dx2             10.077428       8.232726
                                                         5.847736       9.105758
                                                         2.494033       2.849835
                                                         0.988355       0.554319
                                                         0.344978       0.067245
                                                         0.099466       0.001940
                          1       6    4dxy             10.077428      14.259500
                                                         5.847736      15.771636
                                                         2.494033       4.936060
                                                         0.988355       0.960109
                                                         0.344978       0.116472
                                                         0.099466       0.003360
                          1       6    4dxz             10.077428      14.259500
                                                         5.847736      15.771636
                                                         2.494033       4.936060
                                                         0.988355       0.960109
                                                         0.344978       0.116472
                                                         0.099466       0.003360
                          1       6    4dy2             10.077428       8.232726
                                                         5.847736       9.105758
                                                         2.494033       2.849835
                                                         0.988355       0.554319
                                                         0.344978       0.067245
                                                         0.099466       0.001940
                          1       6    4dyz             10.077428      14.259500
                                                         5.847736      15.771636
                                                         2.494033       4.936060
                                                         0.988355       0.960109
                                                         0.344978       0.116472
                                                         0.099466       0.003360
                          1       6    4dz2             10.077428       8.232726
                                                         5.847736       9.105758
                                                         2.494033       2.849835
                                                         0.988355       0.554319
                                                         0.344978       0.067245
                                                         0.099466       0.001940

                          1       7    5dx2             10.077428      -2.715373
                                                         5.847736      -4.020640
                                                         2.494033      -1.397569
                                                         0.988355      -0.076143
                                                         0.344978       0.033435
                                                         0.099466       0.026032
                          1       7    5dxy             10.077428      -4.703164
                                                         5.847736      -6.963952
                                                         2.494033      -2.420661
                                                         0.988355      -0.131883
                                                         0.344978       0.057911
                                                         0.099466       0.045088
                          1       7    5dxz             10.077428      -4.703164
                                                         5.847736      -6.963952
                                                         2.494033      -2.420661
                                                         0.988355      -0.131883
                                                         0.344978       0.057911
                                                         0.099466       0.045088
                          1       7    5dy2             10.077428      -2.715373
                                                         5.847736      -4.020640
                                                         2.494033      -1.397569
                                                         0.988355      -0.076143
                                                         0.344978       0.033435
                                                         0.099466       0.026032
                          1       7    5dyz             10.077428      -4.703164
                                                         5.847736      -6.963952
                                                         2.494033      -2.420661
                                                         0.988355      -0.131883
                                                         0.344978       0.057911
                                                         0.099466       0.045088
                          1       7    5dz2             10.077428      -2.715373
                                                         5.847736      -4.020640
                                                         2.494033      -1.397569
                                                         0.988355      -0.076143
                                                         0.344978       0.033435
                                                         0.099466       0.026032

                          1       8    5fx3             10.077428      -0.467694
                                                         5.847736       0.618100
                                                         2.494033       0.066069
                                                         0.988355       0.262898
                                                         0.344978       0.004720
                                                         0.099466       0.007748
                          1       8    5fx2y            10.077428      -1.045795
                                                         5.847736       1.382114
                                                         2.494033       0.147734
                                                         0.988355       0.587859
                                                         0.344978       0.010555
                                                         0.099466       0.017325
                          1       8    5fx2z            10.077428      -1.045795
                                                         5.847736       1.382114
                                                         2.494033       0.147734
                                                         0.988355       0.587859
                                                         0.344978       0.010555
                                                         0.099466       0.017325
                          1       8    5fxy2            10.077428      -1.045795
                                                         5.847736       1.382114
                                                         2.494033       0.147734
                                                         0.988355       0.587859
                                                         0.344978       0.010555
                                                         0.099466       0.017325
                          1       8    5fxyz            10.077428      -1.811371
                                                         5.847736       2.393892
                                                         2.494033       0.255883
                                                         0.988355       1.018201
                                                         0.344978       0.018282
                                                         0.099466       0.030008
                          1       8    5fxz2            10.077428      -1.045795
                                                         5.847736       1.382114
                                                         2.494033       0.147734
                                                         0.988355       0.587859
                                                         0.344978       0.010555
                                                         0.099466       0.017325
                          1       8    5fy3             10.077428      -0.467694
                                                         5.847736       0.618100
                                                         2.494033       0.066069
                                                         0.988355       0.262898
                                                         0.344978       0.004720
                                                         0.099466       0.007748
                          1       8    5fy2z            10.077428      -1.045795
                                                         5.847736       1.382114
                                                         2.494033       0.147734
                                                         0.988355       0.587859
                                                         0.344978       0.010555
                                                         0.099466       0.017325
                          1       8    5fyz2            10.077428      -1.045795
                                                         5.847736       1.382114
                                                         2.494033       0.147734
                                                         0.988355       0.587859
                                                         0.344978       0.010555
                                                         0.099466       0.017325
                          1       8    5fz3             10.077428      -0.467694
                                                         5.847736       0.618100
                                                         2.494033       0.066069
                                                         0.988355       0.262898
                                                         0.344978       0.004720
                                                         0.099466       0.007748

       Atomic covalent radius [Angstrom]:                                  1.150

       Atomic van der Waals radius [Angstrom]:                             1.630

     GTH Potential information for                                   GTH-PBE-q18

       Description:                       Goedecker-Teter-Hutter pseudopotential
                                           Goedecker et al., PRB 54, 1703 (1996)
                                          Hartwigsen et al., PRB 58, 3641 (1998)
                                                      Krack, TCA 114, 145 (2005)

       Gaussian exponent of the core charge distribution:               4.081633
       Electronic configuration (s p d ...):                           4   6   8

       Parameters of the local part of the GTH pseudopotential:

                          rloc        C1          C2          C3          C4
                        0.350000    2.102166    0.648484

       Parameters of the non-local part of the GTH pseudopotential:

                   l      r(l)      h(i,j,l)

                   0    0.261295    0.622658    9.970227
                                    9.970227  -12.871507
                   1    0.224253  -11.142708   12.429566
                                   12.429566  -14.706861
                   2    0.215348  -12.628146

  2. Atomic kind: Ni_b                                  Number of atoms:      16

     Orbital Basis Set                                        DZVP-MOLOPT-SR-GTH

       Number of orbital shell sets:                                           1
       Number of orbital shells:                                               8
       Number of primitive Cartesian functions:                                6
       Number of Cartesian basis functions:                                   31
       Number of spherical basis functions:                                   26
       Norm type:                                                              2

       Normalised Cartesian orbitals:

                        Set   Shell   Orbital            Exponent    Coefficient

                          1       1    2s               10.077428      -0.684558
                                                         5.847736      -0.844524
                                                         2.494033       1.088856
                                                         0.988355       0.395503
                                                         0.344978       0.010224
                                                         0.099466      -0.003250

                          1       2    3s               10.077428       0.096747
                                                         5.847736       0.162504
                                                         2.494033      -0.297192
                                                         0.988355      -0.319752
                                                         0.344978       0.088318
                                                         0.099466       0.118587

                          1       3    4s               10.077428       0.036437
                                                         5.847736      -0.381480
                                                         2.494033       0.003759
                                                         0.988355      -1.048256
                                                         0.344978       0.855825
                                                         0.099466      -0.176350

                          1       4    3px              10.077428      -3.133913
                                                         5.847736       3.027656
                                                         2.494033       2.353227
                                                         0.988355       0.554184
                                                         0.344978       0.019462
                                                         0.099466      -0.000291
                          1       4    3py              10.077428      -3.133913
                                                         5.847736       3.027656
                                                         2.494033       2.353227
                                                         0.988355       0.554184
                                                         0.344978       0.019462
                                                         0.099466      -0.000291
                          1       4    3pz              10.077428      -3.133913
                                                         5.847736       3.027656
                                                         2.494033       2.353227
                                                         0.988355       0.554184
                                                         0.344978       0.019462
                                                         0.099466      -0.000291

                          1       5    4px              10.077428      -0.112729
                                                         5.847736      -0.114008
                                                         2.494033      -0.347303
                                                         0.988355      -0.110323
                                                         0.344978       0.154096
                                                         0.099466       0.058386
                          1       5    4py              10.077428      -0.112729
                                                         5.847736      -0.114008
                                                         2.494033      -0.347303
                                                         0.988355      -0.110323
                                                         0.344978       0.154096
                                                         0.099466       0.058386
                          1       5    4pz              10.077428      -0.112729
                                                         5.847736      -0.114008
                                                         2.494033      -0.347303
                                                         0.988355      -0.110323
                                                         0.344978       0.154096
                                                         0.099466       0.058386

                          1       6    4dx2             10.077428       8.232726
                                                         5.847736       9.105758
                                                         2.494033       2.849835
                                                         0.988355       0.554319
                                                         0.344978       0.067245
                                                         0.099466       0.001940
                          1       6    4dxy             10.077428      14.259500
                                                         5.847736      15.771636
                                                         2.494033       4.936060
                                                         0.988355       0.960109
                                                         0.344978       0.116472
                                                         0.099466       0.003360
                          1       6    4dxz             10.077428      14.259500
                                                         5.847736      15.771636
                                                         2.494033       4.936060
                                                         0.988355       0.960109
                                                         0.344978       0.116472
                                                         0.099466       0.003360
                          1       6    4dy2             10.077428       8.232726
                                                         5.847736       9.105758
                                                         2.494033       2.849835
                                                         0.988355       0.554319
                                                         0.344978       0.067245
                                                         0.099466       0.001940
                          1       6    4dyz             10.077428      14.259500
                                                         5.847736      15.771636
                                                         2.494033       4.936060
                                                         0.988355       0.960109
                                                         0.344978       0.116472
                                                         0.099466       0.003360
                          1       6    4dz2             10.077428       8.232726
                                                         5.847736       9.105758
                                                         2.494033       2.849835
                                                         0.988355       0.554319
                                                         0.344978       0.067245
                                                         0.099466       0.001940

                          1       7    5dx2             10.077428      -2.715373
                                                         5.847736      -4.020640
                                                         2.494033      -1.397569
                                                         0.988355      -0.076143
                                                         0.344978       0.033435
                                                         0.099466       0.026032
                          1       7    5dxy             10.077428      -4.703164
                                                         5.847736      -6.963952
                                                         2.494033      -2.420661
                                                         0.988355      -0.131883
                                                         0.344978       0.057911
                                                         0.099466       0.045088
                          1       7    5dxz             10.077428      -4.703164
                                                         5.847736      -6.963952
                                                         2.494033      -2.420661
                                                         0.988355      -0.131883
                                                         0.344978       0.057911
                                                         0.099466       0.045088
                          1       7    5dy2             10.077428      -2.715373
                                                         5.847736      -4.020640
                                                         2.494033      -1.397569
                                                         0.988355      -0.076143
                                                         0.344978       0.033435
                                                         0.099466       0.026032
                          1       7    5dyz             10.077428      -4.703164
                                                         5.847736      -6.963952
                                                         2.494033      -2.420661
                                                         0.988355      -0.131883
                                                         0.344978       0.057911
                                                         0.099466       0.045088
                          1       7    5dz2             10.077428      -2.715373
                                                         5.847736      -4.020640
                                                         2.494033      -1.397569
                                                         0.988355      -0.076143
                                                         0.344978       0.033435
                                                         0.099466       0.026032

                          1       8    5fx3             10.077428      -0.467694
                                                         5.847736       0.618100
                                                         2.494033       0.066069
                                                         0.988355       0.262898
                                                         0.344978       0.004720
                                                         0.099466       0.007748
                          1       8    5fx2y            10.077428      -1.045795
                                                         5.847736       1.382114
                                                         2.494033       0.147734
                                                         0.988355       0.587859
                                                         0.344978       0.010555
                                                         0.099466       0.017325
                          1       8    5fx2z            10.077428      -1.045795
                                                         5.847736       1.382114
                                                         2.494033       0.147734
                                                         0.988355       0.587859
                                                         0.344978       0.010555
                                                         0.099466       0.017325
                          1       8    5fxy2            10.077428      -1.045795
                                                         5.847736       1.382114
                                                         2.494033       0.147734
                                                         0.988355       0.587859
                                                         0.344978       0.010555
                                                         0.099466       0.017325
                          1       8    5fxyz            10.077428      -1.811371
                                                         5.847736       2.393892
                                                         2.494033       0.255883
                                                         0.988355       1.018201
                                                         0.344978       0.018282
                                                         0.099466       0.030008
                          1       8    5fxz2            10.077428      -1.045795
                                                         5.847736       1.382114
                                                         2.494033       0.147734
                                                         0.988355       0.587859
                                                         0.344978       0.010555
                                                         0.099466       0.017325
                          1       8    5fy3             10.077428      -0.467694
                                                         5.847736       0.618100
                                                         2.494033       0.066069
                                                         0.988355       0.262898
                                                         0.344978       0.004720
                                                         0.099466       0.007748
                          1       8    5fy2z            10.077428      -1.045795
                                                         5.847736       1.382114
                                                         2.494033       0.147734
                                                         0.988355       0.587859
                                                         0.344978       0.010555
                                                         0.099466       0.017325
                          1       8    5fyz2            10.077428      -1.045795
                                                         5.847736       1.382114
                                                         2.494033       0.147734
                                                         0.988355       0.587859
                                                         0.344978       0.010555
                                                         0.099466       0.017325
                          1       8    5fz3             10.077428      -0.467694
                                                         5.847736       0.618100
                                                         2.494033       0.066069
                                                         0.988355       0.262898
                                                         0.344978       0.004720
                                                         0.099466       0.007748

       Atomic covalent radius [Angstrom]:                                  1.150

       Atomic van der Waals radius [Angstrom]:                             1.630

     GTH Potential information for                                   GTH-PBE-q18

       Description:                       Goedecker-Teter-Hutter pseudopotential
                                           Goedecker et al., PRB 54, 1703 (1996)
                                          Hartwigsen et al., PRB 58, 3641 (1998)
                                                      Krack, TCA 114, 145 (2005)

       Gaussian exponent of the core charge distribution:               4.081633
       Electronic configuration (s p d ...):                           4   6   8

       Parameters of the local part of the GTH pseudopotential:

                          rloc        C1          C2          C3          C4
                        0.350000    2.102166    0.648484

       Parameters of the non-local part of the GTH pseudopotential:

                   l      r(l)      h(i,j,l)

                   0    0.261295    0.622658    9.970227
                                    9.970227  -12.871507
                   1    0.224253  -11.142708   12.429566
                                   12.429566  -14.706861
                   2    0.215348  -12.628146


 MOLECULE KIND INFORMATION


 All atoms are their own molecule, skipping detailed information


 TOTAL NUMBERS AND MAXIMUM NUMBERS

  Total number of            - Atomic kinds:                                   2
                             - Atoms:                                         32
                             - Shell sets:                                    32
                             - Shells:                                       256
                             - Primitive Cartesian functions:                192
                             - Cartesian basis functions:                    992
                             - Spherical basis functions:                    832

  Maximum angular momentum of- Orbital basis functions:                        3
                             - Local part of the GTH pseudopotential:          2
                             - Non-local part of the GTH pseudopotential:      3


 MODULE QUICKSTEP: ATOMIC COORDINATES IN ANGSTROM

   Atom Kind Element         X             Y             Z       Z(eff)     Mass
      1    1 Ni   28      0.876298      0.876298      7.370500  18.0000  58.6934
      2    1 Ni   28      0.876298      4.382298      7.370500  18.0000  58.6934
      3    1 Ni   28      2.629298      2.629298      7.370500  18.0000  58.6934
      4    1 Ni   28      2.629298      6.135298      7.370500  18.0000  58.6934
      5    1 Ni   28      4.382298      0.876298      7.370500  18.0000  58.6934
      6    1 Ni   28      4.382298      4.382298      7.370500  18.0000  58.6934
      7    1 Ni   28      6.135298      2.629298      7.370500  18.0000  58.6934
      8    1 Ni   28      6.135298      6.135298      7.370500  18.0000  58.6934
      9    2 Ni   28      0.876298      2.629298      9.123500  18.0000  58.6934
     10    2 Ni   28      0.876298      6.135298      9.123500  18.0000  58.6934
     11    2 Ni   28      2.629298      0.876298      9.123500  18.0000  58.6934
     12    2 Ni   28      2.629298      4.382298      9.123500  18.0000  58.6934
     13    2 Ni   28      4.382298      2.629298      9.123500  18.0000  58.6934
     14    2 Ni   28      4.382298      6.135298      9.123500  18.0000  58.6934
     15    2 Ni   28      6.135298      0.876298      9.123500  18.0000  58.6934
     16    2 Ni   28      6.135298      4.382298      9.123500  18.0000  58.6934
     17    2 Ni   28      0.876298      0.876298     10.876500  18.0000  58.6934
     18    2 Ni   28      0.876298      4.382298     10.876500  18.0000  58.6934
     19    2 Ni   28      2.629298      2.629298     10.876500  18.0000  58.6934
     20    2 Ni   28      2.629298      6.135298     10.876500  18.0000  58.6934
     21    2 Ni   28      4.382298      0.876298     10.876500  18.0000  58.6934
     22    2 Ni   28      4.382298      4.382298     10.876500  18.0000  58.6934
     23    2 Ni   28      6.135298      2.629298     10.876500  18.0000  58.6934
     24    2 Ni   28      6.135298      6.135298     10.876500  18.0000  58.6934
     25    1 Ni   28      0.876298      2.629298     12.629500  18.0000  58.6934
     26    1 Ni   28      0.876298      6.135298     12.629500  18.0000  58.6934
     27    1 Ni   28      2.629298      0.876298     12.629500  18.0000  58.6934
     28    1 Ni   28      2.629298      4.382298     12.629500  18.0000  58.6934
     29    1 Ni   28      4.382298      2.629298     12.629500  18.0000  58.6934
     30    1 Ni   28      4.382298      6.135298     12.629500  18.0000  58.6934
     31    1 Ni   28      6.135298      0.876298     12.629500  18.0000  58.6934
     32    1 Ni   28      6.135298      4.382298     12.629500  18.0000  58.6934



 SCF PARAMETERS         Density guess:                                    ATOMIC
                        --------------------------------------------------------
                        max_scf:                                             500
                        max_scf_history:                                       0
                        max_diis:                                              4
                        --------------------------------------------------------
                        eps_scf:                                        1.00E-03
                        eps_scf_history:                                0.00E+00
                        eps_diis:                                       1.00E-01
                        eps_eigval:                                     1.00E-05
                        --------------------------------------------------------
                        level_shift [a.u.]:                             0.000000
                        added MOs                                       534  553
                        --------------------------------------------------------
                        Mixing method:                            BROYDEN_MIXING
                                                charge density mixing in g-space
                        --------------------------------------------------------
                        Smear method:                                FERMI_DIRAC
                        Electronic temperature [K]:                       2000.0
                        Electronic temperature [a.u.]:                  6.33E-03
                        Accuracy threshold:                             1.00E-10
                        --------------------------------------------------------
                        No outer SCF

 PW_GRID| Information for grid number                                          1
 PW_GRID| Grid distributed over                                   128 processors
 PW_GRID| Real space group dimensions                                     8   16
 PW_GRID| the grid is blocked:                                               YES
 PW_GRID| Cutoff [a.u.]                                                    300.0
 PW_GRID| spherical cutoff:                                                   NO
 PW_GRID|   Bounds   1            -54      53                Points:         108
 PW_GRID|   Bounds   2            -54      53                Points:         108
 PW_GRID|   Bounds   3           -150     149                Points:         300
 PW_GRID| Volume element (a.u.^3)  0.1896E-02     Volume (a.u.^3)      6635.2971
 PW_GRID| Grid span                                                    FULLSPACE
 PW_GRID|   Distribution                         Average         Max         Min
 PW_GRID|   G-Vectors                            27337.5       28728       25272
 PW_GRID|   G-Rays                                 253.1         266         234
 PW_GRID|   Real Space Points                    27337.5       28728       25272

 PW_GRID| Information for grid number                                          2
 PW_GRID| Number of the reference grid                                         1
 PW_GRID| Grid distributed over                                   128 processors
 PW_GRID| Real space group dimensions                                     8   16
 PW_GRID| the grid is blocked:                                                NO
 PW_GRID| Cutoff [a.u.]                                                    100.0
 PW_GRID| spherical cutoff:                                                   NO
 PW_GRID|   Bounds   1            -30      29                Points:          60
 PW_GRID|   Bounds   2            -30      29                Points:          60
 PW_GRID|   Bounds   3            -90      89                Points:         180
 PW_GRID| Volume element (a.u.^3)  0.1024E-01     Volume (a.u.^3)      6635.2971
 PW_GRID| Grid span                                                    FULLSPACE
 PW_GRID|   Distribution                         Average         Max         Min
 PW_GRID|   G-Vectors                             5062.5       15960           0
 PW_GRID|   G-Rays                                  84.4         266           0
 PW_GRID|   Real Space Points                     5062.5        5760        3780

 PW_GRID| Information for grid number                                          3
 PW_GRID| Number of the reference grid                                         1
 PW_GRID| Grid distributed over                                   128 processors
 PW_GRID| Real space group dimensions                                     8   16
 PW_GRID| the grid is blocked:                                                NO
 PW_GRID| Cutoff [a.u.]                                                     33.3
 PW_GRID| spherical cutoff:                                                   NO
 PW_GRID|   Bounds   1            -18      17                Points:          36
 PW_GRID|   Bounds   2            -18      17                Points:          36
 PW_GRID|   Bounds   3            -50      49                Points:         100
 PW_GRID| Volume element (a.u.^3)  0.5120E-01     Volume (a.u.^3)      6635.2971
 PW_GRID| Grid span                                                    FULLSPACE
 PW_GRID|   Distribution                         Average         Max         Min
 PW_GRID|   G-Vectors                             1012.5        9576           0
 PW_GRID|   G-Rays                                  28.1         266           0
 PW_GRID|   Real Space Points                     1012.5        1500         800

 PW_GRID| Information for grid number                                          4
 PW_GRID| Number of the reference grid                                         1
 PW_GRID| Grid distributed over                                   128 processors
 PW_GRID| Real space group dimensions                                     8   16
 PW_GRID| the grid is blocked:                                                NO
 PW_GRID| Cutoff [a.u.]                                                     11.1
 PW_GRID| spherical cutoff:                                                   NO
 PW_GRID|   Bounds   1            -10       9                Points:          20
 PW_GRID|   Bounds   2            -10       9                Points:          20
 PW_GRID|   Bounds   3            -30      29                Points:          60
 PW_GRID| Volume element (a.u.^3)  0.2765         Volume (a.u.^3)      6635.2971
 PW_GRID| Grid span                                                    FULLSPACE
 PW_GRID|   Distribution                         Average         Max         Min
 PW_GRID|   G-Vectors                              187.5        3800           0
 PW_GRID|   G-Rays                                   9.4         190           0
 PW_GRID|   Real Space Points                      187.5         360         120

 PW_GRID| Information for grid number                                          5
 PW_GRID| Number of the reference grid                                         1
 PW_GRID| Grid distributed over                                   128 processors
 PW_GRID| Real space group dimensions                                     8   16
 PW_GRID| the grid is blocked:                                                NO
 PW_GRID| Cutoff [a.u.]                                                      3.7
 PW_GRID| spherical cutoff:                                                   NO
 PW_GRID|   Bounds   1             -6       5                Points:          12
 PW_GRID|   Bounds   2             -6       5                Points:          12
 PW_GRID|   Bounds   3            -18      17                Points:          36
 PW_GRID| Volume element (a.u.^3)   1.280         Volume (a.u.^3)      6635.2971
 PW_GRID| Grid span                                                    FULLSPACE
 PW_GRID|   Distribution                         Average         Max         Min
 PW_GRID|   G-Vectors                               40.5        1296           0
 PW_GRID|   G-Rays                                   3.4         108           0
 PW_GRID|   Real Space Points                       40.5          72           0

 POISSON| Solver                                                        PERIODIC
 POISSON| Periodicity                                                        XYZ

 RS_GRID| Information for grid number                                          1
 RS_GRID|   Bounds   1            -54      53                Points:         108
 RS_GRID|   Bounds   2            -54      53                Points:         108
 RS_GRID|   Bounds   3           -150     149                Points:         300
 RS_GRID| Real space distribution over                                  8 groups
 RS_GRID| Real space distribution along direction                              2
 RS_GRID| Border size                                                         28
 RS_GRID| Real space distribution over                                 16 groups
 RS_GRID| Real space distribution along direction                              3
 RS_GRID| Border size                                                         28
 RS_GRID|   Distribution                         Average         Max         Min
 RS_GRID|   Planes                                  69.5          70          69
 RS_GRID|   Distribution                         Average         Max         Min
 RS_GRID|   Planes                                  74.8          75          74

 RS_GRID| Information for grid number                                          2
 RS_GRID|   Bounds   1            -30      29                Points:          60
 RS_GRID|   Bounds   2            -30      29                Points:          60
 RS_GRID|   Bounds   3            -90      89                Points:         180
 RS_GRID| Real space fully replicated
 RS_GRID| Group size                                                           1

 RS_GRID| Information for grid number                                          3
 RS_GRID|   Bounds   1            -18      17                Points:          36
 RS_GRID|   Bounds   2            -18      17                Points:          36
 RS_GRID|   Bounds   3            -50      49                Points:         100
 RS_GRID| Real space fully replicated
 RS_GRID| Group size                                                           1

 RS_GRID| Information for grid number                                          4
 RS_GRID|   Bounds   1            -10       9                Points:          20
 RS_GRID|   Bounds   2            -10       9                Points:          20
 RS_GRID|   Bounds   3            -30      29                Points:          60
 RS_GRID| Real space fully replicated
 RS_GRID| Group size                                                           1

 RS_GRID| Information for grid number                                          5
 RS_GRID|   Bounds   1             -6       5                Points:          12
 RS_GRID|   Bounds   2             -6       5                Points:          12
 RS_GRID|   Bounds   3            -18      17                Points:          36
 RS_GRID| Real space fully replicated
 RS_GRID| Group size                                                           1

 Spin 1

 Number of electrons:                                                        297.600
 Number of occupied orbitals:                                                298
 Number of molecular orbitals:                                               832

 Spin 2

 Number of electrons:                                                        278.400
 Number of occupied orbitals:                                                279
 Number of molecular orbitals:                                               832

 Number of orbital functions:                                                832
 Number of independent orbital functions:                                    832

 Extrapolation method: initial_guess

 Atomic guess: The first density matrix is obtained in terms of atomic orbitals
               and electronic configurations assigned to each atomic kind

 Guess for atomic kind: Ni_i

 Electronic structure
    Total number of core electrons                                         10.00
    Total number of valence electrons                                      18.00
    Total number of electrons                                              28.00
    Multiplicity                                                         doublet
    Alpha Electrons
    S   [  1.00  1.00] 1.00  1.00
    P   [  3.00] 3.00
    D      4.35
    Beta Electrons
    S   [  1.00  1.00] 1.00  1.00
    P   [  3.00] 3.00
    D      3.65


 *******************************************************************************
                  Iteration          Convergence                     Energy [au]
 *******************************************************************************
                          1         1.51729                    -167.067424631347
                          2         15.3902                    -156.642654318634
                          3         2.33433                    -168.319355313541
                          4        0.206730                    -168.609905008081
                          5        0.814175E-01                -168.612873080494
                          6        0.173318E-01                -168.613470181066
                          7        0.290432E-02                -168.613543571401
                          8        0.311825E-02                -168.613543401474
                          9        0.179670E-03                -168.613544404477
                         10        0.169386E-02                -168.613544207811
                         11        0.473341E-03                -168.613544360253
                         12        0.165417E-03                -168.613544400419
                         13        0.162622E-03                -168.613544401489
                         14        0.158325E-03                -168.613544403900
                         15        0.177007E-03                -168.613544402509
                         16        0.138916E-03                -168.613544404900
                         17        0.934549E-04                -168.613544406149
                         18        0.119916E-03                -168.613544405789
                         19        0.131607E-03                -168.613544405591
                         20        0.169309E-03                -168.613544404773
                         21        0.551337E-04                -168.613544406656
                         22        0.382664E-04                -168.613544406759
                         23        0.378942E-04                -168.613544406765
                         24        0.381089E-04                -168.613544406765
                         25        0.390835E-04                -168.613544406759
                         26        0.308614E-04                -168.613544406841
                         27        0.205044E-04                -168.613544406892
                         28        0.200942E-04                -168.613544406893
                         29        0.199375E-04                -168.613544406893
                         30        0.200198E-04                -168.613544406894
                         31        0.161325E-04                -168.613544406903
                         32        0.330614E-05                -168.613544406925
                         33        0.238713E-05                -168.613544406926
                         34        0.265439E-05                -168.613544406926
                         35        0.277073E-05                -168.613544406926
                         36        0.335175E-05                -168.613544406926
                         37        0.148809E-05                -168.613544406927
                         38        0.133447E-05                -168.613544406927
                         39        0.918735E-06                -168.613544406927

 Energy components [Hartree]           Total Energy ::         -168.613544406927
                                        Band Energy ::          -26.569761966525
                                     Kinetic Energy ::           97.306723392622
                                   Potential Energy ::         -265.920267799548
                                      Virial (-V/T) ::            2.732804666812
                                        Core Energy ::         -299.567979157577
                                          XC Energy ::          -16.227189041387
                                     Coulomb Energy ::          147.181623792037
                       Total Pseudopotential Energy ::         -396.961043505191
                       Local Pseudopotential Energy ::         -362.648291121960
                    Nonlocal Pseudopotential Energy ::          -34.312752383230
                                        Confinement ::            0.863409549921

 Orbital energies  State     Spin  L     Occupation   Energy[a.u.]    Energy[eV]

                       1    alpha  0          1.000      -4.172666   -113.544030
                       2    alpha  0          1.000      -0.181431     -4.936983
                       1     beta  0          1.000      -4.140640   -112.672541
                       2     beta  0          1.000      -0.176372     -4.799339

                       1    alpha  1          3.000      -2.578739    -70.171064
                       1     beta  1          3.000      -2.547579    -69.323162

                       1    alpha  2          4.350      -0.327039     -8.899191
                       1     beta  2          3.650      -0.300569     -8.178887


 Total Electron Density at R=0:                                         0.030422

 Guess for atomic kind: Ni_b

 Electronic structure
    Total number of core electrons                                         10.00
    Total number of valence electrons                                      18.00
    Total number of electrons                                              28.00
    Multiplicity                                                         doublet
    Alpha Electrons
    S   [  1.00  1.00] 1.00  1.00
    P   [  3.00] 3.00
    D      4.25
    Beta Electrons
    S   [  1.00  1.00] 1.00  1.00
    P   [  3.00] 3.00
    D      3.75


 *******************************************************************************
                  Iteration          Convergence                     Energy [au]
 *******************************************************************************
                          1         1.51687                    -167.065012761055
                          2         14.9817                    -156.620431300845
                          3         2.25575                    -168.317311438693
                          4        0.189210                    -168.607926092750
                          5        0.708658E-01                -168.610773319290
                          6        0.122256E-01                -168.611238205502
                          7        0.598421E-02                -168.611272268995
                          8        0.528277E-02                -168.611272438110
                          9        0.104644E-02                -168.611275321653
                         10        0.260234E-02                -168.611274926630
                         11        0.975322E-03                -168.611275328217
                         12        0.161067E-03                -168.611275447773
                         13        0.147413E-03                -168.611275446839
                         14        0.115114E-03                -168.611275449434
                         15        0.167217E-03                -168.611275445436
                         16        0.255374E-04                -168.611275450531
                         17        0.418369E-04                -168.611275450414
                         18        0.393709E-04                -168.611275450477
                         19        0.239931E-04                -168.611275450542
                         20        0.173885E-04                -168.611275450557
                         21        0.851368E-05                -168.611275450578
                         22        0.849928E-05                -168.611275450580
                         23        0.544937E-05                -168.611275450584
                         24        0.540003E-05                -168.611275450586
                         25        0.613371E-05                -168.611275450584
                         26        0.311593E-06                -168.611275450588

 Energy components [Hartree]           Total Energy ::         -168.611275450588
                                        Band Energy ::          -26.568680144499
                                     Kinetic Energy ::           97.303659243130
                                   Potential Energy ::         -265.914934693718
                                      Virial (-V/T) ::            2.732835915546
                                        Core Energy ::         -299.566189183323
                                          XC Energy ::          -16.224592878785
                                     Coulomb Energy ::          147.179506611520
                       Total Pseudopotential Energy ::         -396.956189041778
                       Local Pseudopotential Energy ::         -362.645043136649
                    Nonlocal Pseudopotential Energy ::          -34.311145905129
                                        Confinement ::            0.863406153250

 Orbital energies  State     Spin  L     Occupation   Energy[a.u.]    Energy[eV]

                       1    alpha  0          1.000      -4.168335   -113.426177
                       2    alpha  0          1.000      -0.180730     -4.917906
                       1     beta  0          1.000      -4.145459   -112.803683
                       2     beta  0          1.000      -0.177117     -4.819606

                       1    alpha  1          3.000      -2.574525    -70.056390
                       1     beta  1          3.000      -2.552268    -69.450746

                       1    alpha  2          4.250      -0.323446     -8.801405
                       1     beta  2          3.750      -0.304537     -8.286881


 Total Electron Density at R=0:                                         0.030429

 Spin 1
 Re-scaling the density matrix to get the right number of electrons for spin 1
                  # Electrons              Trace(P)               Scaling factor
                        297.600             297.600                        1.000

 Spin 2
 Re-scaling the density matrix to get the right number of electrons for spin 2
                  # Electrons              Trace(P)               Scaling factor
                        278.400             278.400                        1.000


 SCF WAVEFUNCTION OPTIMIZATION

  Step     Update method      Time    Convergence         Total energy    Change
  ------------------------------------------------------------------------------
     1 NoMix/Diag. 0.40E+00    2.4     0.87318318     -5426.4441344177 -5.43E+03
     2 Broy./Diag. 0.40E+00    1.5     0.10632441     -5344.1139172730  8.23E+01
[...]
   122 Broy./Diag. 0.40E+00    1.5     0.04160980     -5417.8101076940 -5.33E-02
   123 Broy./Diag. 0.40E+00    1.5     0.02212171     -5417.6528547120  1.57E-01
   124 Broy./Diag. 0.40E+00    1.5     0.02373867     -5417.8841461048 -2.31E-01
   125 Broy./Diag. 0.40E+00    1.5     0.04217022     -5417.7840302687  1.00E-01
   126 Broy./Diag. 0.40E+00    1.5     0.09556050     -5417.8454904055 -6.15E-02
   127 Broy./Diag. 0.40E+00    1.5     0.07295018     -5417.7898851828  5.56E-02
   128 Broy./Diag. 0.40E+00    1.5     0.00883211     -5417.8231681624 -3.33E-02
   129 Broy./Diag. 0.40E+00    1.5     0.08828443     -5417.8396911707 -1.65E-02
   130 Broy./Diag. 0.40E+00    1.5     0.09970631     -5417.7716642235  6.80E-02
   131 Broy./Diag. 0.40E+00    1.5     0.12696678     -5417.7978861612 -2.62E-02
   132 Broy./Diag. 0.40E+00    1.5     0.24997660     -5417.6138461244  1.84E-01
   133 Broy./Diag. 0.40E+00    1.5     0.10131593     -5417.7149645872 -1.01E-01
   134 Broy./Diag. 0.40E+00    1.5     0.10589210     -5417.8177706358 -1.03E-01
   135 Broy./Diag. 0.40E+00    1.5     0.06472003     -5417.9149424530 -9.72E-02
   136 Broy./Diag. 0.40E+00    1.5     0.05300618     -5417.8535431351  6.14E-02
   137 Broy./Diag. 0.40E+00    1.5     0.07012596     -5418.0277975974 -1.74E-01
   138 Broy./Diag. 0.40E+00    1.5     0.01479646     -5417.9996816919  2.81E-02
   139 Broy./Diag. 0.40E+00    1.5     0.03007601     -5417.9668516999  3.28E-02
   140 Broy./Diag. 0.40E+00    1.5     0.02324071     -5418.0007871051 -3.39E-02
   141 Broy./Diag. 0.40E+00    1.5     0.05305527     -5418.1025159896 -1.02E-01
   142 Broy./Diag. 0.40E+00    1.5     0.03895001     -5417.9686891875  1.34E-01
   143 Broy./Diag. 0.40E+00    1.5     0.02417028     -5417.9018814044  6.68E-02
   144 Broy./Diag. 0.40E+00    1.5     0.02681246     -5417.7676870389  1.34E-01
   145 Broy./Diag. 0.40E+00    1.5     0.06547813     -5417.8499639259 -8.23E-02
   146 Broy./Diag. 0.40E+00    1.5     0.21920101     -5418.1698839844 -3.20E-01
   147 Broy./Diag. 0.40E+00    1.5     0.14484730     -5418.2321183913 -6.22E-02
   148 Broy./Diag. 0.40E+00    1.5     0.12610073     -5417.7009798071  5.31E-01
   149 Broy./Diag. 0.40E+00    1.5     0.08096537     -5417.7853684230 -8.44E-02
   150 Broy./Diag. 0.40E+00    1.5     0.10988944     -5417.8425053656 -5.71E-02
   151 Broy./Diag. 0.40E+00    1.5     0.09623960     -5417.9797325564 -1.37E-01
   152 Broy./Diag. 0.40E+00    1.5     0.06797925     -5417.7582134603  2.22E-01
   153 Broy./Diag. 0.40E+00    1.5     0.04337298     -5417.8176669613 -5.95E-02
   154 Broy./Diag. 0.40E+00    1.5     0.05470067     -5417.7672471981  5.04E-02
   155 Broy./Diag. 0.40E+00    1.5     0.05410466     -5417.8150589168 -4.78E-02
   156 Broy./Diag. 0.40E+00    1.5     0.01986625     -5417.8494155754 -3.44E-02
   157 Broy./Diag. 0.40E+00    1.5     0.04668559     -5417.7493044147  1.00E-01
   158 Broy./Diag. 0.40E+00    1.5     0.02878762     -5417.8223766552 -7.31E-02
   159 Broy./Diag. 0.40E+00    1.5     0.01427910     -5417.7916840403  3.07E-02
   160 Broy./Diag. 0.40E+00    1.5     0.00513793     -5417.7852083755  6.48E-03
   161 Broy./Diag. 0.40E+00    1.5     0.04561836     -5417.7853830638 -1.75E-04
   162 Broy./Diag. 0.40E+00    1.5     0.03015832     -5417.8052304036 -1.98E-02
   163 Broy./Diag. 0.40E+00    1.5     0.03182069     -5417.7410387269  6.42E-02
   164 Broy./Diag. 0.40E+00    1.5     0.03351287     -5417.8137549822 -7.27E-02
   165 Broy./Diag. 0.40E+00    1.5     0.07356755     -5417.8196355178 -5.88E-03
   166 Broy./Diag. 0.40E+00    1.5     0.11522559     -5417.8057951103  1.38E-02
   167 Broy./Diag. 0.40E+00    1.5     0.08279348     -5417.8023214782  3.47E-03
   168 Broy./Diag. 0.40E+00    1.5     0.03623631     -5417.5693103908  2.33E-01
   169 Broy./Diag. 0.40E+00    1.5     0.03837677     -5417.7458071092 -1.76E-01
   170 Broy./Diag. 0.40E+00    1.5     0.03896963     -5417.6951727889  5.06E-02
   171 Broy./Diag. 0.40E+00    1.5     0.02411879     -5417.6668009229  2.84E-02
   172 Broy./Diag. 0.40E+00    1.5     0.06311584     -5417.5979907950  6.88E-02
   173 Broy./Diag. 0.40E+00    1.5     0.09563089     -5417.8435052632 -2.46E-01
   174 Broy./Diag. 0.40E+00    1.5     0.03554286     -5417.6323666480  2.11E-01
   175 Broy./Diag. 0.40E+00    1.5     0.08690010     -5417.7070078900 -7.46E-02
   176 Broy./Diag. 0.40E+00    1.5     0.14487503     -5417.6091264280  9.79E-02
   177 Broy./Diag. 0.40E+00    1.5     0.12816893     -5417.7286274051 -1.20E-01
   178 Broy./Diag. 0.40E+00    1.5     0.07970036     -5417.7400904284 -1.15E-02
   179 Broy./Diag. 0.40E+00    1.5     0.05560835     -5417.7014298957  3.87E-02
   180 Broy./Diag. 0.40E+00    1.5     0.04241227     -5417.6534817740  4.79E-02
   181 Broy./Diag. 0.40E+00    1.5     0.04041696     -5417.7182824013 -6.48E-02
   182 Broy./Diag. 0.40E+00    1.5     0.05630536     -5417.8523894635 -1.34E-01
   183 Broy./Diag. 0.40E+00    1.5     0.05583725     -5417.9923073281 -1.40E-01
   184 Broy./Diag. 0.40E+00    1.5     0.04965290     -5417.8468689383  1.45E-01
   185 Broy./Diag. 0.40E+00    1.5     0.04479815     -5417.8257967247  2.11E-02
   186 Broy./Diag. 0.40E+00    1.5     0.02965471     -5417.7465594941  7.92E-02
   187 Broy./Diag. 0.40E+00    1.5     0.02028955     -5417.8556855291 -1.09E-01
   188 Broy./Diag. 0.40E+00    1.5     0.03569319     -5417.8232384528  3.24E-02
   189 Broy./Diag. 0.40E+00    1.5     0.12977866     -5417.7054613874  1.18E-01
   190 Broy./Diag. 0.40E+00    1.5     0.02117926     -5417.3587869672  3.47E-01
   191 Broy./Diag. 0.40E+00    1.5     0.03297890     -5417.4494380005 -9.07E-02
   192 Broy./Diag. 0.40E+00    1.5     0.06420386     -5417.5095954956 -6.02E-02
   193 Broy./Diag. 0.40E+00    1.5     0.04126273     -5417.2063056416  3.03E-01
   194 Broy./Diag. 0.40E+00    1.5     0.05810035     -5417.1481582728  5.81E-02
   195 Broy./Diag. 0.40E+00    1.5     0.07972161     -5417.3159837539 -1.68E-01
   196 Broy./Diag. 0.40E+00    1.5     0.06217769     -5417.3497640120 -3.38E-02
   197 Broy./Diag. 0.40E+00    1.5     0.07384524     -5416.9144368074  4.35E-01
   198 Broy./Diag. 0.40E+00    1.5     0.17855736     -5417.3533649356 -4.39E-01
   199 Broy./Diag. 0.40E+00    1.5     0.20661342     -5417.6628129423 -3.09E-01
   200 Broy./Diag. 0.40E+00    1.5     0.27298456     -5417.2055851101  4.57E-01
   201 Broy./Diag. 0.40E+00    1.5     0.21800495     -5417.8571442458 -6.52E-01
   202 Broy./Diag. 0.40E+00    1.5     0.15317125     -5418.0331041040 -1.76E-01
   203 Broy./Diag. 0.40E+00    1.5     0.10389947     -5417.3122996707  7.21E-01
   204 Broy./Diag. 0.40E+00    1.5     0.15725636     -5417.6765430150 -3.64E-01
   205 Broy./Diag. 0.40E+00    1.5     0.08104017     -5417.9155702831 -2.39E-01
   206 Broy./Diag. 0.40E+00    1.5     0.10947627     -5417.6497714544  2.66E-01
   207 Broy./Diag. 0.40E+00    1.5     0.12291889     -5418.0348524724 -3.85E-01
   208 Broy./Diag. 0.40E+00    1.5     0.05275244     -5417.7020751690  3.33E-01
   209 Broy./Diag. 0.40E+00    1.5     0.05337895     -5417.7568450198 -5.48E-02
   210 Broy./Diag. 0.40E+00    1.5     0.03127811     -5417.8011057003 -4.43E-02
   211 Broy./Diag. 0.40E+00    1.5     0.04140688     -5417.6760877693  1.25E-01
   212 Broy./Diag. 0.40E+00    1.5     0.02254728     -5417.5156522405  1.60E-01
   213 Broy./Diag. 0.40E+00    1.5     0.03432892     -5417.4829438035  3.27E-02
   214 Broy./Diag. 0.40E+00    1.5     0.10150529     -5417.5468061735 -6.39E-02
   215 Broy./Diag. 0.40E+00    1.5     0.02788414     -5417.9748665454 -4.28E-01
   216 Broy./Diag. 0.40E+00    1.5     0.03830984     -5418.0170059913 -4.21E-02
   217 Broy./Diag. 0.40E+00    1.5     0.19114661     -5418.1077387862 -9.07E-02
   218 Broy./Diag. 0.40E+00    1.5     0.03747996     -5417.3417765636  7.66E-01
   219 Broy./Diag. 0.40E+00    1.5     0.05612234     -5417.3104452339  3.13E-02
   220 Broy./Diag. 0.40E+00    1.5     0.01644381     -5417.5309885689 -2.21E-01
   221 Broy./Diag. 0.40E+00    1.5     0.05861218     -5417.3558184608  1.75E-01
   222 Broy./Diag. 0.40E+00    1.5     0.18885403     -5417.0916210366  2.64E-01
   223 Broy./Diag. 0.40E+00    1.5     0.23990964     -5417.3170463212 -2.25E-01
   224 Broy./Diag. 0.40E+00    1.5     0.12370663     -5417.7091237161 -3.92E-01
   225 Broy./Diag. 0.40E+00    1.6     0.04793676     -5417.4115695154  2.98E-01
   226 Broy./Diag. 0.40E+00    1.5     0.12115539     -5417.2277935839  1.84E-01
   227 Broy./Diag. 0.40E+00    1.5     0.16815478     -5417.0079551806  2.20E-01
   228 Broy./Diag. 0.40E+00    1.5     0.15186891     -5417.2140275241 -2.06E-01
   229 Broy./Diag. 0.40E+00    1.5     0.15957285     -5417.6308064980 -4.17E-01
   230 Broy./Diag. 0.40E+00    1.5     0.19102068     -5417.5598516859  7.10E-02
   231 Broy./Diag. 0.40E+00    1.5     0.15444234     -5417.6473804612 -8.75E-02
   232 Broy./Diag. 0.40E+00    1.5     0.17592397     -5418.2706474561 -6.23E-01
   233 Broy./Diag. 0.40E+00    1.5     0.20468883     -5418.1665598882  1.04E-01
   234 Broy./Diag. 0.40E+00    1.5     0.07726682     -5417.4352602240  7.31E-01
   235 Broy./Diag. 0.40E+00    1.5     0.08254823     -5417.3989997330  3.63E-02
   236 Broy./Diag. 0.40E+00    1.5     0.07512145     -5417.6178248119 -2.19E-01
   237 Broy./Diag. 0.40E+00    1.5     0.04992742     -5417.6286180510 -1.08E-02
   238 Broy./Diag. 0.40E+00    1.5     0.05889876     -5417.3533351928  2.75E-01
   239 Broy./Diag. 0.40E+00    1.5     0.05325604     -5417.4789823077 -1.26E-01
   240 Broy./Diag. 0.40E+00    1.5     0.08526466     -5417.5594055953 -8.04E-02
   241 Broy./Diag. 0.40E+00    1.5     0.09598818     -5417.7974357464 -2.38E-01
   242 Broy./Diag. 0.40E+00    1.5     0.13028974     -5418.5062028017 -7.09E-01
   243 Broy./Diag. 0.40E+00    1.5     0.25065252     -5418.2202093932  2.86E-01
   244 Broy./Diag. 0.40E+00    1.5     0.04703650     -5416.1411138482  2.08E+00
   245 Broy./Diag. 0.40E+00    1.5     0.07825062     -5416.4426655919 -3.02E-01
   246 Broy./Diag. 0.40E+00    1.5     0.06872262     -5415.7241121881  7.19E-01
   247 Broy./Diag. 0.40E+00    1.5     0.07875045     -5415.1366970233  5.87E-01
   248 Broy./Diag. 0.40E+00    1.5     0.08437198     -5416.5113417428 -1.37E+00
   249 Broy./Diag. 0.40E+00    1.5     0.10076007     -5416.8335951855 -3.22E-01
   250 Broy./Diag. 0.40E+00    1.5     0.04152307     -5417.2357822380 -4.02E-01
   251 Broy./Diag. 0.40E+00    1.5     0.09821723     -5416.9115858367  3.24E-01
   252 Broy./Diag. 0.40E+00    1.5     0.11839559     -5417.5188380062 -6.07E-01
   253 Broy./Diag. 0.40E+00    1.5     0.15788314     -5416.9629895619  5.56E-01
   254 Broy./Diag. 0.40E+00    1.5     0.05244128     -5416.2284975474  7.34E-01
   255 Broy./Diag. 0.40E+00    1.5     0.15952792     -5417.0913454032 -8.63E-01
   256 Broy./Diag. 0.40E+00    1.5     0.22155642     -5416.0825566100  1.01E+00
   257 Broy./Diag. 0.40E+00    1.5     0.14016491     -5417.4268679206 -1.34E+00
   258 Broy./Diag. 0.40E+00    1.5     0.16688362     -5417.7022587227 -2.75E-01
   259 Broy./Diag. 0.40E+00    1.5     0.17298251     -5417.8636852024 -1.61E-01
   260 Broy./Diag. 0.40E+00    1.5     0.07923898     -5417.8582478103  5.44E-03
   261 Broy./Diag. 0.40E+00    1.5     0.26829999     -5417.4010575762  4.57E-01
   262 Broy./Diag. 0.40E+00    1.5     0.07889993     -5419.4516597952 -2.05E+00
   263 Broy./Diag. 0.40E+00    1.5     0.16542202     -5418.4602745880  9.91E-01
   264 Broy./Diag. 0.40E+00    1.5     0.16230628     -5417.3135222522  1.15E+00
   265 Broy./Diag. 0.40E+00    1.5     0.12573050     -5416.0429961369  1.27E+00
   266 Broy./Diag. 0.40E+00    1.5     0.25447289     -5415.7292630465  3.14E-01
   267 Broy./Diag. 0.40E+00    1.5     0.21788291     -5415.1046482646  6.25E-01
   268 Broy./Diag. 0.40E+00    1.5     0.04320386     -5415.5931763780 -4.89E-01
   269 Broy./Diag. 0.40E+00    1.5     0.03021776     -5415.9018789592 -3.09E-01
   270 Broy./Diag. 0.40E+00    1.5     0.02776485     -5415.8519652711  4.99E-02
   271 Broy./Diag. 0.40E+00    1.5     0.06990274     -5415.8932390712 -4.13E-02
   272 Broy./Diag. 0.40E+00    1.5     0.13272675     -5415.9413490555 -4.81E-02
   273 Broy./Diag. 0.40E+00    1.5     0.37757794     -5416.3181181327 -3.77E-01
   274 Broy./Diag. 0.40E+00    1.5     0.32952866     -5418.5604663448 -2.24E+00
   275 Broy./Diag. 0.40E+00    1.5     0.18149662     -5418.3918311699  1.69E-01
   276 Broy./Diag. 0.40E+00    1.5     0.56035125     -5417.1842387425  1.21E+00
   277 Broy./Diag. 0.40E+00    1.5     0.31628459     -5419.3401399852 -2.16E+00
   278 Broy./Diag. 0.40E+00    1.5     0.31204165     -5416.9413207903  2.40E+00
   279 Broy./Diag. 0.40E+00    1.5     0.19281759     -5417.8143468816 -8.73E-01
   280 Broy./Diag. 0.40E+00    1.5     0.22660028     -5418.4093391289 -5.95E-01
   281 Broy./Diag. 0.40E+00    1.5     0.19925889     -5418.4158039331 -6.46E-03
   282 Broy./Diag. 0.40E+00    1.5     0.13107256     -5417.1377664549  1.28E+00
   283 Broy./Diag. 0.40E+00    1.5     0.08427007     -5417.9620557697 -8.24E-01
   284 Broy./Diag. 0.40E+00    1.5     0.07418813     -5417.6822227565  2.80E-01
   285 Broy./Diag. 0.40E+00    1.5     0.03673682     -5417.4813252376  2.01E-01
   286 Broy./Diag. 0.40E+00    1.5     0.17982999     -5417.6519906692 -1.71E-01
   287 Broy./Diag. 0.40E+00    1.5     0.42860056     -5417.7257258590 -7.37E-02
   288 Broy./Diag. 0.40E+00    1.5     0.11554853     -5417.5538286113  1.72E-01
   289 Broy./Diag. 0.40E+00    1.5     0.07688844     -5417.1645109014  3.89E-01
   290 Broy./Diag. 0.40E+00    1.5     0.21903303     -5417.4256854476 -2.61E-01
   291 Broy./Diag. 0.40E+00    1.5     0.34877970     -5416.6363596372  7.89E-01
   292 Broy./Diag. 0.40E+00    1.5     0.39422746     -5417.9049574215 -1.27E+00
   293 Broy./Diag. 0.40E+00    1.5     0.12554192     -5417.2798489695  6.25E-01
   294 Broy./Diag. 0.40E+00    1.5     0.21389764     -5416.7432974173  5.37E-01
   295 Broy./Diag. 0.40E+00    1.5     0.12734335     -5417.5596127854 -8.16E-01
   296 Broy./Diag. 0.40E+00    1.5     0.23519009     -5417.8632664883 -3.04E-01
   297 Broy./Diag. 0.40E+00    1.5     0.27032657     -5417.3025879757  5.61E-01
   298 Broy./Diag. 0.40E+00    1.5     0.13786970     -5417.9245535418 -6.22E-01
   299 Broy./Diag. 0.40E+00    1.5     0.13470586     -5417.1766921873  7.48E-01
   300 Broy./Diag. 0.40E+00    1.5     0.13540569     -5417.0118092216  1.65E-01
   301 Broy./Diag. 0.40E+00    1.5     0.64110952     -5416.9807857354  3.10E-02
   302 Broy./Diag. 0.40E+00    1.5     0.50879451     -5417.3699346501 -3.89E-01
   303 Broy./Diag. 0.40E+00    1.5     0.34399672     -5417.2761237055  9.38E-02
   304 Broy./Diag. 0.40E+00    1.5     0.29158880     -5418.9069523487 -1.63E+00
   305 Broy./Diag. 0.40E+00    1.5     0.18137559     -5417.5144568121  1.39E+00
   306 Broy./Diag. 0.40E+00    1.5     0.07771307     -5417.8998900114 -3.85E-01
   307 Broy./Diag. 0.40E+00    1.5     0.12012346     -5418.0441332876 -1.44E-01
   308 Broy./Diag. 0.40E+00    1.5     0.10025921     -5418.8778308420 -8.34E-01
   309 Broy./Diag. 0.40E+00    1.5     0.07975554     -5418.5618933271  3.16E-01
   310 Broy./Diag. 0.40E+00    1.5     0.08053211     -5418.2647524829  2.97E-01
   311 Broy./Diag. 0.40E+00    1.5     0.29376233     -5418.7720553607 -5.07E-01
   312 Broy./Diag. 0.40E+00    1.5     0.34971916     -5419.4289832462 -6.57E-01
   313 Broy./Diag. 0.40E+00    1.5     0.26263216     -5418.3736305231  1.06E+00
   314 Broy./Diag. 0.40E+00    1.5     0.31478819     -5417.3125661183  1.06E+00
   315 Broy./Diag. 0.40E+00    1.5     0.10783569     -5417.8977006691 -5.85E-01
   316 Broy./Diag. 0.40E+00    1.5     0.08183229     -5418.4722781646 -5.75E-01
   317 Broy./Diag. 0.40E+00    1.5     0.12047621     -5419.0273646061 -5.55E-01
   318 Broy./Diag. 0.40E+00    1.5     0.04930192     -5418.3585974004  6.69E-01
   319 Broy./Diag. 0.40E+00    1.5     0.04190000     -5418.2752639288  8.33E-02
   320 Broy./Diag. 0.40E+00    1.5     0.13230893     -5418.0956306934  1.80E-01
   321 Broy./Diag. 0.40E+00    1.5     0.34724809     -5418.1548581270 -5.92E-02
   322 Broy./Diag. 0.40E+00    1.5     0.56298552     -5416.6825166225  1.47E+00
   323 Broy./Diag. 0.40E+00    1.5     0.08450901     -5418.0580294464 -1.38E+00
   324 Broy./Diag. 0.40E+00    1.5     0.18557186     -5418.2300750397 -1.72E-01
   325 Broy./Diag. 0.40E+00    1.5     0.15663286     -5419.0257577875 -7.96E-01
   326 Broy./Diag. 0.40E+00    1.5     0.05977062     -5419.6577785261 -6.32E-01
   327 Broy./Diag. 0.40E+00    1.5     0.08727538     -5418.9355460836  7.22E-01
   328 Broy./Diag. 0.40E+00    1.5     0.07570218     -5418.1313411014  8.04E-01
   329 Broy./Diag. 0.40E+00    1.5     0.15159540     -5418.5567050694 -4.25E-01
   330 Broy./Diag. 0.40E+00    1.5     0.29244921     -5418.2597236334  2.97E-01
   331 Broy./Diag. 0.40E+00    1.5     0.48971616     -5417.9341980654  3.26E-01
   332 Broy./Diag. 0.40E+00    1.5     0.23874147     -5415.2336758141  2.70E+00
   333 Broy./Diag. 0.40E+00    1.5     0.28265439     -5419.0658697434 -3.83E+00
   334 Broy./Diag. 0.40E+00    1.5     0.23072675     -5417.9509048872  1.11E+00
   335 Broy./Diag. 0.40E+00    1.5     0.24208488     -5417.3067590901  6.44E-01
   336 Broy./Diag. 0.40E+00    1.5     0.08001042     -5418.2226692006 -9.16E-01
   337 Broy./Diag. 0.40E+00    1.5     0.11357625     -5418.1147104507  1.08E-01
   338 Broy./Diag. 0.40E+00    1.5     0.12744705     -5418.4882637320 -3.74E-01
   339 Broy./Diag. 0.40E+00    1.5     0.77714339     -5417.9335853506  5.55E-01
   340 Broy./Diag. 0.40E+00    1.5     0.79976850     -5418.8554241649 -9.22E-01
   341 Broy./Diag. 0.40E+00    1.5     0.26210931     -5417.5985193954  1.26E+00
   342 Broy./Diag. 0.40E+00    1.5     0.11855355     -5416.8085508310  7.90E-01
   343 Broy./Diag. 0.40E+00    1.5     0.31622007     -5416.9431275832 -1.35E-01
   344 Broy./Diag. 0.40E+00    1.5     0.11351219     -5418.8020233063 -1.86E+00
   345 Broy./Diag. 0.40E+00    1.5     0.11020427     -5417.8377551697  9.64E-01
   346 Broy./Diag. 0.40E+00    1.5     0.59660172     -5417.6543547744  1.83E-01
   347 Broy./Diag. 0.40E+00    1.5     0.16539669     -5417.5080220740  1.46E-01
   348 Broy./Diag. 0.40E+00    1.5     0.45201629     -5417.6127606121 -1.05E-01
   349 Broy./Diag. 0.40E+00    1.5     0.34293660     -5417.3858746859  2.27E-01
   350 Broy./Diag. 0.40E+00    1.5     0.16023764     -5416.5730281297  8.13E-01
   351 Broy./Diag. 0.40E+00    1.5     0.04691336     -5416.7468616646 -1.74E-01
   352 Broy./Diag. 0.40E+00    1.5     0.28912651     -5416.7681653497 -2.13E-02
   353 Broy./Diag. 0.40E+00    1.5     0.57727196     -5415.7001963730  1.07E+00
   354 Broy./Diag. 0.40E+00    1.5     0.28651694     -5417.2399405953 -1.54E+00
   355 Broy./Diag. 0.40E+00    1.5     0.25349706     -5416.7309155391  5.09E-01
   356 Broy./Diag. 0.40E+00    1.5     0.28490804     -5417.4597312019 -7.29E-01
   357 Broy./Diag. 0.40E+00    1.5     0.31791345     -5417.7768008811 -3.17E-01
   358 Broy./Diag. 0.40E+00    1.5     0.28987520     -5417.8479574223 -7.12E-02
   359 Broy./Diag. 0.40E+00    1.5     0.43843585     -5418.5532559372 -7.05E-01
   360 Broy./Diag. 0.40E+00    1.5     0.40445287     -5419.9865588143 -1.43E+00
   361 Broy./Diag. 0.40E+00    1.5     0.47342763     -5419.5014922772  4.85E-01
   362 Broy./Diag. 0.40E+00    1.5     0.68233373     -5419.2658307038  2.36E-01
   363 Broy./Diag. 0.40E+00    1.5     0.73460881     -5418.3142365853  9.52E-01
   364 Broy./Diag. 0.40E+00    1.5     0.52803937     -5420.4678761294 -2.15E+00
   365 Broy./Diag. 0.40E+00    1.5     0.73376804     -5416.6766280874  3.79E+00
   366 Broy./Diag. 0.40E+00    1.5     0.79314127     -5415.4915368796  1.19E+00
   367 Broy./Diag. 0.40E+00    1.5     0.67136316     -5416.5739011040 -1.08E+00
