      60
 i =        1, E =     -7949.3286680204
 Pt        -3.0944757080        5.4137646123        8.0969136932
 Pt         1.5940969322        5.4134748112        8.1152483338
 Pt        -0.7342250329        1.3530907368        8.1600741012
 Pt         3.9545407068        1.3541610156        8.1597824659
 Pt         1.5881133447        2.7056445107        8.1286448972
 Pt         6.2767965478        2.7065947328        8.1251636944
 Pt         6.2723328070       -0.0008533238        8.1443632295
 Pt         1.5830898313       -0.0014682649        8.1338640706
 Pt        -0.7283221420        6.7633021400        8.1754171332
 Pt         3.9639957653        6.7655413452        8.1809194901
 Pt        -0.7231496118        4.0635576033        8.1896520670
 Pt         3.9687223817        4.0607407730        8.1927729601
 Ni         0.0343994309        5.4329538315       10.3783886993
 Ni         4.7268976262        2.6947740447       10.3765443108
 Ni         0.0356125865        0.0223546001       10.3768650232
 Ni         4.7043433226        5.4219421113       10.3811270833
 Pt        -2.3231047462        4.0512400793       10.3788971663
 Pt        -2.3166466700        6.7763470745       10.3797623029
 Ni         0.0119510537        2.7098710599       10.3785221175
 Ni         4.6873597833        0.0084738008       10.3756068785
 Pt         2.3708507404        4.0794759703       10.3836697103
 Pt         2.3915844761        1.3377975737       10.3876278973
 Pt         2.3811226271        6.7473340990       10.3844618960
 Pt         7.0825165444        1.3758639192       10.3875947026
 Pt        -3.9056756782        6.7695572076       12.5314388023
 Pt        -1.5629110902        5.4077979812       12.5305134094
 Ni        -1.5564011338        2.6976706450       12.5288433067
 Pt         0.7835914902        4.0626426135       12.5296557430
 Pt         0.7825101763        1.3542442999       12.5331397044
 Pt         0.7798164472        6.7712108444       12.5322968268
 Ni         3.1114202112       -0.0045026650       12.5283725597
 Pt         3.1269562240        2.7153506879       12.5305200269
 Ni         3.1331709937        5.4255098820       12.5295785926
 Pt         5.4739718945        4.0588254171       12.5296824003
 Pt         5.4677559215        1.3524571799       12.5313300102
 Pt         7.8160001899       -0.0035253513       12.5292051641
 Pt        -0.8211920479        1.3766149380       14.6744161934
 Pt         3.8774324242        6.7465420599       14.6768032936
 Pt         3.8650479934        1.3353417197       14.6735634098
 Pt         3.8874689715        4.0783996425       14.6777304702
 Ni         6.2536582810        2.7003443374       14.6851156928
 Pt        -0.8062499241        6.7787769581       14.6791251181
 Ni         1.5710082710        0.0064247802       14.6888949025
 Pt        -0.7971343709        4.0502678065       14.6805696399
 Ni         1.5552264206        5.4215188162       14.6835417501
 Ni         6.2405355988        0.0216661157       14.6858479177
 Ni        -3.1575552637        5.4152330273       14.6831128018
 Ni         1.5410823314        2.7016583017       14.6841132345
 Pt         2.2962133816        4.0611077655       16.8716625037
 Pt        -2.3904732389        4.0634352327       16.8728246213
 Pt         2.3006007388        6.7658117265       16.8834111199
 Pt        -2.3860622256        6.7632783393       16.8869072148
 Pt         4.6815400285       -0.0010394187       16.9253514072
 Pt        -0.0078289422       -0.0003477028       16.9161316326
 Pt        -0.0122823885        2.7066584703       16.9336984309
 Pt         4.6762265036        2.7061330959       16.9312483426
 Pt         6.9982619136        1.3534155821       16.9054387354
 Pt         2.3092148680        1.3553693878       16.9067790531
 Pt         4.6699920564        5.4141190913       16.9447589992
 Pt        -0.0189568620        5.4138932632       16.9592294006
      60
 i =        2, E =     -7949.3300085558
 Pt        -3.1021822992        5.4143845124        8.1101291330
 Pt         1.5895825135        5.4149146891        8.1185124147
 Pt        -0.7271835485        1.3538810610        8.1695175504
 Pt         3.9610543948        1.3527357277        8.1686003317
 Pt         1.5869013335        2.7057868667        8.1172453551
 Pt         6.2787794135        2.7054390636        8.1106865634
 Pt         6.2747802704       -0.0001747284        8.1180100665
 Pt         1.5894390753        0.0000199090        8.1063969817
 Pt        -0.7275671078        6.7680729961        8.1681213006
 Pt         3.9631971404        6.7677912175        8.1712689504
 Pt        -0.7263692587        4.0612745566        8.1683900164
 Pt         3.9636765320        4.0603584086        8.1707886200
 Ni         0.0355530110        5.4298375444       10.3770586090
 Ni         4.7265268972        2.6957974100       10.3764688540
 Ni         0.0403483285        0.0147509530       10.3762418790
 Ni         4.7013853813        5.4183483341       10.3835181507
 Pt        -2.3163910978        4.0472301343       10.3754624104
 Pt        -2.3140537759        6.7835725461       10.3771233093
 Ni         0.0048486640        2.7068488481       10.3833753285
 Ni         4.6927661319        0.0159335483       10.3845500847
 Pt         2.3759693352        4.0766616364       10.3783494838
 Pt         2.3812656093        1.3385211347       10.3816730754
 Pt         2.3797327442        6.7563093455       10.3813053900
 Pt         7.0732380024        1.3698908262       10.3813919219
 Pt        -3.9044474578        6.7687886376       12.5319244530
 Pt        -1.5613119703        5.4115426167       12.5304948001
 Ni        -1.5569841767        2.7042876627       12.5247382614
 Pt         0.7841493549        4.0640202577       12.5294730667
 Pt         0.7863065761        1.3562628269       12.5324804755
 Pt         0.7831083517        6.7719675597       12.5319499009
 Ni         3.1220562322       -0.0070868053       12.5254304412
 Pt         3.1282128975        2.7125575741       12.5313660856
 Ni         3.1311293652        5.4191927665       12.5255789810
 Pt         5.4740611148        4.0595686779       12.5304730497
 Pt         5.4715567819        1.3533735709       12.5301737842
 Pt         7.8180426435       -0.0013070076       12.5315116894
 Pt        -0.8107657024        1.3718652792       14.6790404610
 Pt         3.8790484269        6.7533476931       14.6798916327
 Pt         3.8729009766        1.3360832990       14.6788330832
 Pt         3.8828698989        4.0767634383       14.6808025676
 Ni         6.2488539938        2.6975752278       14.6805235814
 Pt        -0.8058877659        6.7843153564       14.6829039820
 Ni         1.5695000268        0.0090256262       14.6798777103
 Pt        -0.8050173574        4.0461928733       14.6824598343
 Ni         1.5540824820        5.4227369417       14.6814315384
 Ni         6.2378023762        0.0259547944       14.6875895344
 Ni        -3.1512098670        5.4134207503       14.6883370030
 Ni         1.5379591556        2.7136999751       14.6883362916
 Pt         2.3011880526        4.0614950491       16.8946105077
 Pt        -2.3871602227        4.0601540961       16.8948083819
 Pt         2.3005678930        6.7681678929       16.8927941359
 Pt        -2.3865843744        6.7679074937       16.8948159780
 Pt         4.6749320107       -0.0000121968       16.9509273856
 Pt        -0.0104820184       -0.0000075722       16.9439464883
 Pt        -0.0146032206        2.7059864672       16.9493347771
 Pt         4.6766371765        2.7052517037       16.9433819359
 Pt         6.9920121947        1.3544227348       16.8962013191
 Pt         2.3031357480        1.3526626884       16.8945816572
 Pt         4.6742792289        5.4145289723       16.9424955156
 Pt        -0.0123639013        5.4148476764       16.9483065065
      60
 i =        3, E =     -7949.3302950973
 Pt        -3.1022144980        5.4145403770        8.1097305753
 Pt         1.5896883623        5.4149766174        8.1131146260
 Pt        -0.7257918937        1.3532694280        8.1666927110
 Pt         3.9621067420        1.3537706950        8.1652655538
 Pt         1.5877834267        2.7076390104        8.1100871345
 Pt         6.2802086740        2.7065751453        8.1056060517
 Pt         6.2776431646       -0.0003362321        8.1076337901
 Pt         1.5919129179        0.0002548413        8.1019177046
 Pt        -0.7273533695        6.7695577337        8.1650128387
 Pt         3.9619210294        6.7694084894        8.1665444197
 Pt        -0.7282286286        4.0613590973        8.1632259747
 Pt         3.9607957418        4.0598181512        8.1647290640
 Ni         0.0356543097        5.4306602667       10.3744596765
 Ni         4.7249898695        2.6948391387       10.3744267150
 Ni         0.0354189543        0.0129788314       10.3747137494
 Ni         4.6970098821        5.4182477247       10.3822884347
 Pt        -2.3128753949        4.0464080155       10.3762955543
 Pt        -2.3127685833        6.7853736892       10.3748716251
 Ni         0.0055275153        2.7077085141       10.3827391907
 Ni         4.7006569948        0.0248138186       10.3854299932
 Pt         2.3784024138        4.0769864345       10.3785830470
 Pt         2.3759881299        1.3392238989       10.3771301520
 Pt         2.3780157256        6.7572540921       10.3784338370
 Pt         7.0683608218        1.3695546451       10.3773105543
 Pt        -3.9037392615        6.7691773957       12.5315655483
 Pt        -1.5599799936        5.4132112636       12.5299833081
 Ni        -1.5512896878        2.7004875878       12.5178277082
 Pt         0.7861601002        4.0653409096       12.5298603790
 Pt         0.7869606286        1.3560780529       12.5321803798
 Pt         0.7840543709        6.7732619068       12.5319184643
 Ni         3.1169515612       -0.0086492096       12.5190289559
 Pt         3.1286170197        2.7104780266       12.5300821260
 Ni         3.1356144994        5.4232732931       12.5196801046
 Pt         5.4757027660        4.0599975752       12.5303308007
 Pt         5.4722595356        1.3549112694       12.5315099687
 Pt         7.8194417690        0.0011651850       12.5318543366
 Pt        -0.8050782578        1.3712342512       14.6829096430
 Pt         3.8801990072        6.7552778251       14.6822866906
 Pt         3.8789628467        1.3371743650       14.6791833103
 Pt         3.8795733414        4.0782984320       14.6807405268
 Ni         6.2481005482        2.7003263401       14.6799160294
 Pt        -0.8059097404        6.7864679563       14.6821845931
 Ni         1.5690614295        0.0100073247       14.6805978050
 Pt        -0.8092975841        4.0442947974       14.6814528897
 Ni         1.5542567998        5.4209357266       14.6802821861
 Ni         6.2345707743        0.0275526840       14.6894501432
 Ni        -3.1501320301        5.4155693628       14.6902220371
 Ni         1.5380979593        2.7107775221       14.6904906965
 Pt         2.3033018609        4.0611754367       16.9005660779
 Pt        -2.3860567875        4.0603561433       16.9008276678
 Pt         2.3020488855        6.7696659102       16.8965410250
 Pt        -2.3864334300        6.7682548130       16.8985544666
 Pt         4.6719772285        0.0003207232       16.9562553387
 Pt        -0.0136314900       -0.0003878254       16.9528699509
 Pt        -0.0158809290        2.7073735220       16.9547443865
 Pt         4.6751667385        2.7069485638       16.9506735982
 Pt         6.9911285432        1.3539802391       16.8988035656
 Pt         2.3012038813        1.3539642154       16.8964817467
 Pt         4.6744268873        5.4144564401       16.9479336702
 Pt        -0.0127361579        5.4146443988       16.9503134196
      60
 i =        4, E =     -7949.3304265412
 Pt        -3.1010750568        5.4149353804        8.1065908148
 Pt         1.5904097521        5.4151538364        8.1059666827
 Pt        -0.7258228921        1.3538218081        8.1608111532
 Pt         3.9620405758        1.3552635560        8.1589729894
 Pt         1.5884476440        2.7094631723        8.1037204907
 Pt         6.2805558820        2.7086652821        8.1026491833
 Pt         6.2797299667        0.0001467321        8.1000020785
 Pt         1.5924182163        0.0002506310        8.1012170186
 Pt        -0.7266996568        6.7699406543        8.1623834598
 Pt         3.9619305860        6.7698075640        8.1623726689
 Pt        -0.7280269597        4.0626571176        8.1613898066
 Pt         3.9608765747        4.0603567901        8.1616794264
 Ni         0.0365285209        5.4302266452       10.3727038364
 Ni         4.7232945445        2.6936366040       10.3724149727
 Ni         0.0339058729        0.0116154540       10.3728268786
 Ni         4.6932571754        5.4167186694       10.3817967614
 Pt        -2.3106860566        4.0473995032       10.3739670319
 Pt        -2.3117020477        6.7848983799       10.3725136706
 Ni         0.0067115918        2.7079758057       10.3813829010
 Ni         4.7091900284        0.0295088576       10.3800598251
 Pt         2.3788854604        4.0777944333       10.3748788723
 Pt         2.3730724738        1.3413725169       10.3721008207
 Pt         2.3771066561        6.7580544119       10.3746331258
 Pt         7.0654724092        1.3696763353       10.3728545701
 Pt        -3.9032188414        6.7697413034       12.5312132116
 Pt        -1.5587024735        5.4166249638       12.5288065361
 Ni        -1.5483284048        2.7058350368       12.5068457835
 Pt         0.7878976822        4.0659520789       12.5308990785
 Pt         0.7872195567        1.3561924095       12.5318201530
 Pt         0.7861852584        6.7743729231       12.5316098526
 Ni         3.1203824675       -0.0079065221       12.5085283331
 Pt         3.1295400454        2.7075856107       12.5286587331
 Ni         3.1366352552        5.4193426681       12.5092366852
 Pt         5.4765470651        4.0611175503       12.5307292233
 Pt         5.4750945440        1.3572261141       12.5313428932
 Pt         7.8197392203        0.0034724343       12.5310572150
 Pt        -0.8017692405        1.3720890232       14.6854193774
 Pt         3.8809699957        6.7550364443       14.6833428265
 Pt         3.8823127368        1.3392905914       14.6816448216
 Pt         3.8769786711        4.0804285280       14.6811150296
 Ni         6.2459071103        2.7017431230       14.6815379634
 Pt        -0.8068705057        6.7870554463       14.6823751604
 Ni         1.5704791986        0.0110961403       14.6808260211
 Pt        -0.8121443358        4.0439612090       14.6812619117
 Ni         1.5534623680        5.4218018640       14.6811415559
 Ni         6.2295041573        0.0296790265       14.6907714176
 Ni        -3.1504880085        5.4163967773       14.6911578649
 Ni         1.5386860081        2.7071491103       14.6917614637
 Pt         2.3029097187        4.0615657403       16.9022490255
 Pt        -2.3865235704        4.0613558362       16.9027475201
 Pt         2.3016554557        6.7705698140       16.8992593017
 Pt        -2.3868382872        6.7684721102       16.9008105102
 Pt         4.6707353237        0.0005222246       16.9565269451
 Pt        -0.0152949576       -0.0003463351       16.9588052050
 Pt        -0.0167365255        2.7092093608       16.9576303766
 Pt         4.6735120058        2.7088890801       16.9555781209
 Pt         6.9908605505        1.3542495893       16.9039864908
 Pt         2.3009534021        1.3552436487       16.9007379697
 Pt         4.6729518827        5.4146910651       16.9541667231
 Pt        -0.0145496628        5.4148553266       16.9534634966
      60
 i =        5, E =     -7949.3304863000
 Pt        -3.1002008603        5.4155159735        8.1037397035
 Pt         1.5912388371        5.4157782277        8.1037855087
 Pt        -0.7264363748        1.3545759390        8.1583381888
 Pt         3.9617810590        1.3549339420        8.1566980481
 Pt         1.5882833254        2.7092642431        8.1027431861
 Pt         6.2802923561        2.7090078417        8.1029389352
 Pt         6.2787390212        0.0009512946        8.1007513436
 Pt         1.5912333638        0.0006365536        8.1028738560
 Pt        -0.7259999655        6.7703595745        8.1618534323
 Pt         3.9628002218        6.7697350444        8.1619500310
 Pt        -0.7265072067        4.0632409064        8.1628116222
 Pt         3.9624919381        4.0612622642        8.1626961500
 Ni         0.0369900765        5.4293428365       10.3723088506
 Ni         4.7233249082        2.6931555824       10.3713947917
 Ni         0.0349466987        0.0122426964       10.3720848171
 Ni         4.6939003078        5.4166685093       10.3817177597
 Pt        -2.3115969657        4.0485613415       10.3736568040
 Pt        -2.3124554604        6.7845794393       10.3718230378
 Ni         0.0066296816        2.7074864225       10.3814018614
 Ni         4.7084509359        0.0215787063       10.3808920762
 Pt         2.3774242993        4.0779353576       10.3737124274
 Pt         2.3751082226        1.3416692180       10.3712146008
 Pt         2.3776088140        6.7580781553       10.3733681336
 Pt         7.0667407565        1.3703039558       10.3720600062
 Pt        -3.9029371767        6.7703895024       12.5309204077
 Pt        -1.5583911227        5.4166608570       12.5280006301
 Ni        -1.5460269054        2.7062446139       12.5068736603
 Pt         0.7886832430        4.0663053590       12.5307074702
 Pt         0.7876480887        1.3563321212       12.5312472570
 Pt         0.7870199732        6.7742160469       12.5321457137
 Ni         3.1208633372       -0.0062802436       12.5074270784
 Pt         3.1298954569        2.7084956629       12.5277864872
 Ni         3.1387480538        5.4197493918       12.5069587625
 Pt         5.4770284369        4.0614920646       12.5303556252
 Pt         5.4758678624        1.3577006122       12.5302856666
 Pt         7.8198290437        0.0034322109       12.5302521344
 Pt        -0.8037207340        1.3720225366       14.6854581599
 Pt         3.8805937087        6.7550728347       14.6831169801
 Pt         3.8803523073        1.3401068358       14.6817419019
 Pt         3.8773770150        4.0806222136       14.6807109324
 Ni         6.2441564902        2.7019902986       14.6817045626
 Pt        -0.8073759683        6.7868201135       14.6820954059
 Ni         1.5698564455        0.0117236933       14.6813520645
 Pt        -0.8113341309        4.0454435176       14.6813003597
 Ni         1.5535597015        5.4222794381       14.6811713772
 Ni         6.2276425356        0.0300681942       14.6904814785
 Ni        -3.1514571626        5.4161902942       14.6904855889
 Ni         1.5385249299        2.7072024811       14.6909966874
 Pt         2.3009766255        4.0623639782       16.8997198705
 Pt        -2.3880481251        4.0617114408       16.9001972062
 Pt         2.3005554710        6.7705083412       16.8980800711
 Pt        -2.3877757275        6.7688691146       16.8997215269
 Pt         4.6716888968        0.0009048882       16.9536568036
 Pt        -0.0148864610        0.0002845705       16.9559645200
 Pt        -0.0168934467        2.7091293632       16.9558932306
 Pt         4.6733529317        2.7090443211       16.9544662028
 Pt         6.9912230794        1.3550151750       16.9049849863
 Pt         2.3014629162        1.3552771516       16.9022563091
 Pt         4.6715455319        5.4154564265       16.9544301357
 Pt        -0.0156237573        5.4154588967       16.9543026392
      60
 i =        6, E =     -7949.3305209917
 Pt        -3.0997132432        5.4161813060        8.1017039224
 Pt         1.5920399394        5.4166097240        8.1023647960
 Pt        -0.7267373429        1.3555336661        8.1568062428
 Pt         3.9618605002        1.3549129117        8.1556152001
 Pt         1.5886634936        2.7092193345        8.1016075455
 Pt         6.2802840577        2.7091861005        8.1023294381
 Pt         6.2784620530        0.0018601275        8.1002569081
 Pt         1.5905882726        0.0015418850        8.1022381494
 Pt        -0.7254121614        6.7710375886        8.1614301166
 Pt         3.9634884761        6.7701054515        8.1610816264
 Pt        -0.7252389495        4.0637197494        8.1632966607
 Pt         3.9636639581        4.0619826296        8.1625606926
 Ni         0.0372913276        5.4308314602       10.3719976325
 Ni         4.7240497335        2.6947753612       10.3701907122
 Ni         0.0359063198        0.0131559940       10.3710807297
 Ni         4.6948113046        5.4169553176       10.3815458836
 Pt        -2.3125326906        4.0493416820       10.3722303656
 Pt        -2.3121113541        6.7853527791       10.3706951298
 Ni         0.0066082109        2.7075798434       10.3812893529
 Ni         4.7131500484        0.0184333226       10.3817375671
 Pt         2.3757592738        4.0778060220       10.3716061886
 Pt         2.3777984389        1.3414220117       10.3703809709
 Pt         2.3785930122        6.7578934010       10.3723133215
 Pt         7.0691637136        1.3712027521       10.3713127702
 Pt        -3.9026182702        6.7709973400       12.5303431248
 Pt        -1.5578628096        5.4165551655       12.5270997268
 Ni        -1.5445900711        2.7073782779       12.5072840753
 Pt         0.7893757593        4.0666967766       12.5300153652
 Pt         0.7881709238        1.3570648900       12.5304533527
 Pt         0.7880730423        6.7742226360       12.5321860601
 Ni         3.1211366422       -0.0042786192       12.5065536898
 Pt         3.1306681817        2.7098836585       12.5261592460
 Ni         3.1407103662        5.4185758810       12.5063308797
 Pt         5.4775924865        4.0618514710       12.5294449947
 Pt         5.4763497166        1.3581622478       12.5296685940
 Pt         7.8201374175        0.0031507631       12.5291736489
 Pt        -0.8063843210        1.3726541382       14.6838872333
 Pt         3.8799699938        6.7558218537       14.6821198494
 Pt         3.8779547798        1.3409522064       14.6803876352
 Pt         3.8781332583        4.0808631700       14.6801985898
 Ni         6.2413886886        2.7035402928       14.6815306977
 Pt        -0.8078538247        6.7874544163       14.6812411958
 Ni         1.5691496974        0.0130263259       14.6813507138
 Pt        -0.8102594879        4.0465643402       14.6809211418
 Ni         1.5536660800        5.4223233424       14.6813285033
 Ni         6.2255427675        0.0305892651       14.6898821909
 Ni        -3.1519108497        5.4160850081       14.6893941063
 Ni         1.5387202893        2.7085357186       14.6898907426
 Pt         2.2993058912        4.0631929807       16.8978139278
 Pt        -2.3896155229        4.0623374205       16.8981302937
 Pt         2.2993539203        6.7708741295       16.8964724458
 Pt        -2.3889421555        6.7694552419       16.8983285309
 Pt         4.6716654505        0.0018036767       16.9520671643
 Pt        -0.0148596464        0.0012260027       16.9535557560
 Pt        -0.0175855034        2.7092013047       16.9543121773
 Pt         4.6727310138        2.7093239745       16.9530429852
 Pt         6.9907010954        1.3561057471       16.9041628843
 Pt         2.3012268337        1.3556329336       16.9023316570
 Pt         4.6702032491        5.4162895920       16.9530278407
 Pt        -0.0167326513        5.4162830434       16.9538158591
      60
 i =        7, E =     -7949.3305477425
 Pt        -3.0987203532        5.4176351291        8.0993114563
 Pt         1.5928499181        5.4180201794        8.0998751269
 Pt        -0.7261004491        1.3571342883        8.1543842381
 Pt         3.9628254900        1.3556275926        8.1542867117
 Pt         1.5895833119        2.7096839809        8.0991183416
 Pt         6.2809785330        2.7101098764        8.1002853050
 Pt         6.2796045675        0.0031927403        8.0982668531
 Pt         1.5910253819        0.0028715367        8.0997943029
 Pt        -0.7246229864        6.7719750414        8.1600601066
 Pt         3.9644279269        6.7711485919        8.1589778811
 Pt        -0.7240673292        4.0649194141        8.1626807767
 Pt         3.9646726536        4.0630637285        8.1611085921
 Ni         0.0381002730        5.4308805419       10.3711886630
 Ni         4.7253707999        2.6942835758       10.3680288330
 Ni         0.0351767533        0.0146359794       10.3689187500
 Ni         4.6960544694        5.4171536641       10.3807365561
 Pt        -2.3133552162        4.0508274054       10.3695477956
 Pt        -2.3112222056        6.7867553620       10.3690155053
 Ni         0.0068765069        2.7077413521       10.3806691974
 Ni         4.7218531338        0.0117202983       10.3803797198
 Pt         2.3745819021        4.0778177389       10.3680149936
 Pt         2.3812010555        1.3411758524       10.3686491147
 Pt         2.3804355959        6.7578164092       10.3706251361
 Pt         7.0721598002        1.3724452785       10.3700281283
 Pt        -3.9012758972        6.7722972049       12.5287314812
 Pt        -1.5568624041        5.4175355248       12.5251131142
 Ni        -1.5434327388        2.7093280695       12.5064264225
 Pt         0.7904223355        4.0675495265       12.5288147592
 Pt         0.7890496048        1.3582596258       12.5286408289
 Pt         0.7896742076        6.7744815280       12.5315535213
 Ni         3.1217923545       -0.0000577346       12.5050887858
 Pt         3.1317857768        2.7124838539       12.5229837929
 Ni         3.1436806601        5.4172557837       12.5051555904
 Pt         5.4788572622        4.0628632100       12.5274034838
 Pt         5.4773726463        1.3586449083       12.5281396944
 Pt         7.8209880602        0.0033042580       12.5272993892
 Pt        -0.8102202546        1.3746410219       14.6805080614
 Pt         3.8790955479        6.7571691462       14.6798548324
 Pt         3.8750703124        1.3422250004       14.6777009460
 Pt         3.8784999696        4.0818914099       14.6784657024
 Ni         6.2355026220        2.7072608900       14.6813073500
 Pt        -0.8087590465        6.7889540888       14.6791935381
 Ni         1.5682729222        0.0154733087       14.6808138430
 Pt        -0.8094175338        4.0478897466       14.6794349760
 Ni         1.5534392651        5.4222671838       14.6809693986
 Ni         6.2222456688        0.0310328463       14.6889170104
 Ni        -3.1521554367        5.4165974368       14.6878719534
 Ni         1.5392027678        2.7096442364       14.6883898064
 Pt         2.2972561746        4.0645737689       16.8955495578
 Pt        -2.3914510992        4.0638293176       16.8956203850
 Pt         2.2974945790        6.7722684965       16.8940014184
 Pt        -2.3906740431        6.7708093683       16.8960580441
 Pt         4.6699087119        0.0033671950       16.9503439297
 Pt        -0.0162202845        0.0029310260       16.9504050698
 Pt        -0.0193794508        2.7100725951       16.9520460826
 Pt         4.6707759804        2.7103176126       16.9514059903
 Pt         6.9889702294        1.3576641276       16.9016915058
 Pt         2.2997642143        1.3568929784       16.9013556470
 Pt         4.6682782773        5.4179204578       16.9504135895
 Pt        -0.0186655545        5.4178261786       16.9522514466
      60
 i =        8, E =     -7949.3305648718
 Pt        -3.0987016161        5.4180166662        8.0995429667
 Pt         1.5929472372        5.4181358412        8.1000584827
 Pt        -0.7252328455        1.3573679812        8.1544601609
 Pt         3.9636971518        1.3559674307        8.1546913968
 Pt         1.5901224336        2.7100684813        8.0990029712
 Pt         6.2815725583        2.7105122619        8.0995271148
 Pt         6.2803612650        0.0032853924        8.0981146022
 Pt         1.5921306922        0.0031126173        8.0986582322
 Pt        -0.7244039684        6.7722294777        8.1594562961
 Pt         3.9646931730        6.7715198839        8.1584744112
 Pt        -0.7242171774        4.0651884975        8.1616715247
 Pt         3.9645593216        4.0632799583        8.1601465800
 Ni         0.0383521003        5.4309896992       10.3707407025
 Ni         4.7261247982        2.6943862061       10.3671169035
 Ni         0.0349056353        0.0150277181       10.3680332234
 Ni         4.6962443735        5.4176994455       10.3806718101
 Pt        -2.3127322199        4.0508652920       10.3691093736
 Pt        -2.3109152794        6.7870380995       10.3687798828
 Ni         0.0069801423        2.7079433990       10.3804470892
 Ni         4.7200039386        0.0115390792       10.3798096130
 Pt         2.3753890653        4.0780354748       10.3677439052
 Pt         2.3809199311        1.3416505611       10.3683321127
 Pt         2.3809361926        6.7579113613       10.3705166466
 Pt         7.0720525155        1.3723096242       10.3697319531
 Pt        -3.9008580464        6.7727678418       12.5282037597
 Pt        -1.5566935253        5.4181932315       12.5243973619
 Ni        -1.5446755334        2.7091108978       12.5065120224
 Pt         0.7902948417        4.0676615926       12.5282290552
 Pt         0.7891004521        1.3586523047       12.5280633383
 Pt         0.7896277451        6.7746155416       12.5308629839
 Ni         3.1212309832        0.0019036547       12.5064937920
 Pt         3.1321197046        2.7129338823       12.5222022676
 Ni         3.1426471281        5.4174305988       12.5062480488
 Pt         5.4789927301        4.0631699296       12.5267603648
 Pt         5.4772541672        1.3586915343       12.5274867738