      60
 i =        1, E =     -7949.3259977838
 Pt        -0.0006279271        0.0002299322        0.0018357849
 Pt        -0.0004207464        0.0000915428        0.0009829676
 Pt         0.0005909547       -0.0000422055        0.0013825118
 Pt         0.0004530296       -0.0001923147        0.0016028373
 Pt         0.0002238101       -0.0003138375       -0.0000498734
 Pt         0.0005541435       -0.0005980336       -0.0006582543
 Pt         0.0008425243        0.0002918146       -0.0010790461
 Pt         0.0012374584        0.0005443135       -0.0010422777
 Pt        -0.0002506711        0.0007657925       -0.0003860534
 Pt        -0.0007330245        0.0006612930       -0.0003222021
 Pt        -0.0007661032       -0.0005926926       -0.0014329067
 Pt        -0.0015290299       -0.0003386842       -0.0014978250
 Ni        -0.0001775634       -0.0005841245        0.0002850267
 Ni        -0.0006153248       -0.0010750792        0.0002479581
 Ni         0.0000000000        0.0000000000        0.0000000000
 Ni         0.0000000000        0.0000000000        0.0000000000
 Pt         0.0000000000        0.0000000000        0.0000000000
 Pt         0.0000000000        0.0000000000        0.0000000000
 Ni         0.0000000000        0.0000000000        0.0000000000
 Ni         0.0000000000        0.0000000000        0.0000000000
 Pt         0.0000000000        0.0000000000        0.0000000000
 Pt         0.0000000000        0.0000000000        0.0000000000
 Pt         0.0000000000        0.0000000000        0.0000000000
 Pt         0.0000000000        0.0000000000        0.0000000000
 Pt         0.0000000000        0.0000000000        0.0000000000
 Pt         0.0000000000        0.0000000000        0.0000000000
 Ni         0.0000000000        0.0000000000        0.0000000000
 Pt         0.0000000000        0.0000000000        0.0000000000
 Pt         0.0000000000        0.0000000000        0.0000000000
 Pt         0.0000000000        0.0000000000        0.0000000000
 Ni         0.0000000000        0.0000000000        0.0000000000
 Pt         0.0000000000        0.0000000000        0.0000000000
 Ni         0.0000000000        0.0000000000        0.0000000000
 Pt         0.0000000000        0.0000000000        0.0000000000
 Pt         0.0000000000        0.0000000000        0.0000000000
 Pt         0.0000000000        0.0000000000        0.0000000000
 Pt         0.0000000000        0.0000000000        0.0000000000
 Pt         0.0000000000        0.0000000000        0.0000000000
 Pt         0.0000000000        0.0000000000        0.0000000000
 Pt         0.0000000000        0.0000000000        0.0000000000
 Ni         0.0000000000        0.0000000000        0.0000000000
 Pt         0.0000000000        0.0000000000        0.0000000000
 Ni         0.0000000000        0.0000000000        0.0000000000
 Pt         0.0000000000        0.0000000000        0.0000000000
 Ni         0.0000000000        0.0000000000        0.0000000000
 Ni         0.0000000000        0.0000000000        0.0000000000
 Ni         0.0000000000        0.0000000000        0.0000000000
 Ni         0.0000000000        0.0000000000        0.0000000000
 Pt         0.0000000000        0.0000000000        0.0000000000
 Pt         0.0000000000        0.0000000000        0.0000000000
 Pt         0.0005055404        0.0007024358        0.0002363496
 Pt         0.0001389207        0.0004604842        0.0002468510
 Pt        -0.0012788034        0.0000964410        0.0011885871
 Pt        -0.0010478373       -0.0000276210        0.0012486582
 Pt        -0.0008149582       -0.0007831010        0.0003832610
 Pt        -0.0005644586       -0.0005962965        0.0000997570
 Pt        -0.0007413904       -0.0003205819       -0.0014111191
 Pt        -0.0006600789       -0.0004468832       -0.0015336303
 Pt         0.0001370070        0.0002094537       -0.0009557462
 Pt         0.0001687154        0.0002485300       -0.0018456734
      60
 i =        2, E =     -7949.3262921113
 Pt        -0.0003398154       -0.0001757472        0.0000726543
 Pt        -0.0002162556       -0.0000559148       -0.0001535384
 Pt         0.0001140307        0.0000287554       -0.0001767674
 Pt         0.0003602240        0.0001798772       -0.0001738968
 Pt        -0.0001040228        0.0003585133       -0.0000413996
 Pt        -0.0001624147        0.0005010525        0.0000728791
 Pt         0.0000218896       -0.0001859412        0.0000053147
 Pt        -0.0001774609       -0.0003322918        0.0002467776
 Pt         0.0000043284       -0.0002582172        0.0000049793
 Pt         0.0001507974       -0.0001332119       -0.0000073057
 Pt        -0.0001713166        0.0002052933       -0.0000380124
 Pt         0.0001852161        0.0002057413       -0.0000377510
 Ni        -0.0004278315        0.0001746025       -0.0001017456
 Ni        -0.0001130326        0.0004578141       -0.0000888827
 Ni         0.0000000000        0.0000000000        0.0000000000
 Ni         0.0000000000        0.0000000000        0.0000000000
 Pt         0.0000000000        0.0000000000        0.0000000000
 Pt         0.0000000000        0.0000000000        0.0000000000
 Ni         0.0000000000        0.0000000000        0.0000000000
 Ni         0.0000000000        0.0000000000        0.0000000000
 Pt         0.0000000000        0.0000000000        0.0000000000
 Pt         0.0000000000        0.0000000000        0.0000000000
 Pt         0.0000000000        0.0000000000        0.0000000000
 Pt         0.0000000000        0.0000000000        0.0000000000
 Pt         0.0000000000        0.0000000000        0.0000000000
 Pt         0.0000000000        0.0000000000        0.0000000000
 Ni         0.0000000000        0.0000000000        0.0000000000
 Pt         0.0000000000        0.0000000000        0.0000000000
 Pt         0.0000000000        0.0000000000        0.0000000000
 Pt         0.0000000000        0.0000000000        0.0000000000
 Ni         0.0000000000        0.0000000000        0.0000000000
 Pt         0.0000000000        0.0000000000        0.0000000000
 Ni         0.0000000000        0.0000000000        0.0000000000
 Pt         0.0000000000        0.0000000000        0.0000000000
 Pt         0.0000000000        0.0000000000        0.0000000000
 Pt         0.0000000000        0.0000000000        0.0000000000
 Pt         0.0000000000        0.0000000000        0.0000000000
 Pt         0.0000000000        0.0000000000        0.0000000000
 Pt         0.0000000000        0.0000000000        0.0000000000
 Pt         0.0000000000        0.0000000000        0.0000000000
 Ni         0.0000000000        0.0000000000        0.0000000000
 Pt         0.0000000000        0.0000000000        0.0000000000
 Ni         0.0000000000        0.0000000000        0.0000000000
 Pt         0.0000000000        0.0000000000        0.0000000000
 Ni         0.0000000000        0.0000000000        0.0000000000
 Ni         0.0000000000        0.0000000000        0.0000000000
 Ni         0.0000000000        0.0000000000        0.0000000000
 Ni         0.0000000000        0.0000000000        0.0000000000
 Pt         0.0000000000        0.0000000000        0.0000000000
 Pt         0.0000000000        0.0000000000        0.0000000000
 Pt        -0.0004592909       -0.0001898417       -0.0000053097
 Pt        -0.0003927728       -0.0001956227       -0.0000417999
 Pt        -0.0002146825       -0.0001334296       -0.0001417161
 Pt        -0.0003373442       -0.0001008872        0.0001151095
 Pt        -0.0001962299        0.0003495143       -0.0001343343
 Pt        -0.0002862758        0.0002919094       -0.0000388896
 Pt        -0.0004937491        0.0000759698        0.0001316886
 Pt        -0.0005797722        0.0001296202        0.0001150141
 Pt        -0.0002234062       -0.0001899879        0.0001698979
 Pt        -0.0000389901       -0.0001706085       -0.0000264314
      60
 i =        3, E =     -7949.3263098255
 Pt         0.0000089984        0.0000744333       -0.0000802789
 Pt        -0.0000282282        0.0000247460       -0.0000740379
 Pt        -0.0000515802        0.0000224545       -0.0000794910
 Pt        -0.0000918944        0.0000031110       -0.0000425343
 Pt        -0.0000189832       -0.0000207892        0.0000118507
 Pt        -0.0000258512       -0.0000525064        0.0000324634
 Pt        -0.0000463556        0.0000482951        0.0000503991
 Pt        -0.0000491829        0.0001007340        0.0001431756
 Pt        -0.0000086611        0.0000805573        0.0000019879
 Pt        -0.0000716409        0.0000763491        0.0000067330
 Pt         0.0000194630        0.0000077956       -0.0000122745
 Pt        -0.0000802976       -0.0000248717        0.0000013322
 Ni        -0.0001529769       -0.0001587261       -0.0000369830
 Ni        -0.0000474209       -0.0000773704       -0.0000105620
 Ni         0.0000000000        0.0000000000        0.0000000000
 Ni         0.0000000000        0.0000000000        0.0000000000
 Pt         0.0000000000        0.0000000000        0.0000000000
 Pt         0.0000000000        0.0000000000        0.0000000000
 Ni         0.0000000000        0.0000000000        0.0000000000
 Ni         0.0000000000        0.0000000000        0.0000000000
 Pt         0.0000000000        0.0000000000        0.0000000000
 Pt         0.0000000000        0.0000000000        0.0000000000
 Pt         0.0000000000        0.0000000000        0.0000000000
 Pt         0.0000000000        0.0000000000        0.0000000000
 Pt         0.0000000000        0.0000000000        0.0000000000
 Pt         0.0000000000        0.0000000000        0.0000000000
 Ni         0.0000000000        0.0000000000        0.0000000000
 Pt         0.0000000000        0.0000000000        0.0000000000
 Pt         0.0000000000        0.0000000000        0.0000000000
 Pt         0.0000000000        0.0000000000        0.0000000000
 Ni         0.0000000000        0.0000000000        0.0000000000
 Pt         0.0000000000        0.0000000000        0.0000000000
 Ni         0.0000000000        0.0000000000        0.0000000000
 Pt         0.0000000000        0.0000000000        0.0000000000
 Pt         0.0000000000        0.0000000000        0.0000000000
 Pt         0.0000000000        0.0000000000        0.0000000000
 Pt         0.0000000000        0.0000000000        0.0000000000
 Pt         0.0000000000        0.0000000000        0.0000000000
 Pt         0.0000000000        0.0000000000        0.0000000000
 Pt         0.0000000000        0.0000000000        0.0000000000
 Ni         0.0000000000        0.0000000000        0.0000000000
 Pt         0.0000000000        0.0000000000        0.0000000000
 Ni         0.0000000000        0.0000000000        0.0000000000
 Pt         0.0000000000        0.0000000000        0.0000000000
 Ni         0.0000000000        0.0000000000        0.0000000000
 Ni         0.0000000000        0.0000000000        0.0000000000
 Ni         0.0000000000        0.0000000000        0.0000000000
 Ni         0.0000000000        0.0000000000        0.0000000000
 Pt         0.0000000000        0.0000000000        0.0000000000
 Pt         0.0000000000        0.0000000000        0.0000000000
 Pt        -0.0002437659        0.0000351340       -0.0000552261
 Pt        -0.0002911050        0.0000336063       -0.0000726500
 Pt        -0.0002609785        0.0000131296       -0.0000894462
 Pt        -0.0002783904       -0.0000083100        0.0000089705
 Pt        -0.0001750610       -0.0000407690       -0.0000124035
 Pt        -0.0001852655       -0.0000264588        0.0000225516
 Pt        -0.0002193327       -0.0000247002        0.0000203270
 Pt        -0.0002285458       -0.0000546009        0.0000104050
 Pt        -0.0001925589        0.0000091036        0.0001271900
 Pt        -0.0002165931        0.0000217638        0.0000921018
      60
 i =        4, E =     -7949.3263178951
 Pt         0.0000677390        0.0000620430       -0.0000541468
 Pt         0.0000539712        0.0000451630        0.0000268144
 Pt        -0.0001127767        0.0000298226        0.0000044948
 Pt        -0.0001530557       -0.0000125355        0.0000024770
 Pt        -0.0000174419       -0.0000572464        0.0000165996
 Pt        -0.0000058042       -0.0000972935        0.0000081593
 Pt        -0.0000654733        0.0000791148        0.0000409782
 Pt        -0.0000245842        0.0001123461       -0.0000000329
 Pt        -0.0000459445        0.0000892829        0.0000005392
 Pt        -0.0000874628        0.0000468384        0.0000046936
 Pt        -0.0000031871       -0.0000163731        0.0000145205
 Pt        -0.0000756604       -0.0000082422        0.0000270520
 Ni        -0.0000590354       -0.0001080012        0.0000220807
 Ni         0.0000104843       -0.0001112374        0.0000118175
 Ni         0.0000000000        0.0000000000        0.0000000000
 Ni         0.0000000000        0.0000000000        0.0000000000
 Pt         0.0000000000        0.0000000000        0.0000000000
 Pt         0.0000000000        0.0000000000        0.0000000000
 Ni         0.0000000000        0.0000000000        0.0000000000
 Ni         0.0000000000        0.0000000000        0.0000000000
 Pt         0.0000000000        0.0000000000        0.0000000000
 Pt         0.0000000000        0.0000000000        0.0000000000
 Pt         0.0000000000        0.0000000000        0.0000000000
 Pt         0.0000000000        0.0000000000        0.0000000000
 Pt         0.0000000000        0.0000000000        0.0000000000
 Pt         0.0000000000        0.0000000000        0.0000000000
 Ni         0.0000000000        0.0000000000        0.0000000000
 Pt         0.0000000000        0.0000000000        0.0000000000
 Pt         0.0000000000        0.0000000000        0.0000000000
 Pt         0.0000000000        0.0000000000        0.0000000000
 Ni         0.0000000000        0.0000000000        0.0000000000
 Pt         0.0000000000        0.0000000000        0.0000000000
 Ni         0.0000000000        0.0000000000        0.0000000000
 Pt         0.0000000000        0.0000000000        0.0000000000
 Pt         0.0000000000        0.0000000000        0.0000000000
 Pt         0.0000000000        0.0000000000        0.0000000000
 Pt         0.0000000000        0.0000000000        0.0000000000
 Pt         0.0000000000        0.0000000000        0.0000000000
 Pt         0.0000000000        0.0000000000        0.0000000000
 Pt         0.0000000000        0.0000000000        0.0000000000
 Ni         0.0000000000        0.0000000000        0.0000000000
 Pt         0.0000000000        0.0000000000        0.0000000000
 Ni         0.0000000000        0.0000000000        0.0000000000
 Pt         0.0000000000        0.0000000000        0.0000000000
 Ni         0.0000000000        0.0000000000        0.0000000000
 Ni         0.0000000000        0.0000000000        0.0000000000
 Ni         0.0000000000        0.0000000000        0.0000000000
 Ni         0.0000000000        0.0000000000        0.0000000000
 Pt         0.0000000000        0.0000000000        0.0000000000
 Pt         0.0000000000        0.0000000000        0.0000000000
 Pt        -0.0000949556        0.0000472097       -0.0000567474
 Pt        -0.0001205786        0.0000535732       -0.0000553263
 Pt        -0.0001819845        0.0000424163        0.0000276569
 Pt        -0.0001657898        0.0000302241       -0.0000030401
 Pt        -0.0000887783       -0.0000809920        0.0000592880
 Pt        -0.0000681370       -0.0000626018        0.0000520795
 Pt        -0.0000596338       -0.0000201765       -0.0000536214
 Pt        -0.0000411651       -0.0000370937       -0.0000525163
 Pt        -0.0001153933        0.0000171121        0.0000328027
 Pt        -0.0001657896        0.0000096279        0.0000947457
      60
 i =        5, E =     -7949.3263214899
 Pt         0.0000071910        0.0000390883       -0.0000174922
 Pt        -0.0000203790        0.0000243948        0.0000499896
 Pt        -0.0000387399        0.0000113141        0.0000182928
 Pt        -0.0000868310        0.0000041048        0.0000032796
 Pt        -0.0000408321       -0.0000202833        0.0000159618
 Pt        -0.0000366418       -0.0000305001       -0.0000043270
 Pt        -0.0000648417        0.0000331200        0.0000201559
 Pt        -0.0000315835        0.0000471327       -0.0000492209
 Pt        -0.0000361261        0.0000364189       -0.0000024619
 Pt        -0.0000313030        0.0000252702       -0.0000016290
 Pt         0.0000004910        0.0000094385        0.0000210606
 Pt        -0.0000332929        0.0000040074        0.0000289477
 Ni        -0.0000155769       -0.0000522795        0.0000230368
 Ni         0.0000355155       -0.0000351429        0.0000132026
 Ni         0.0000000000        0.0000000000        0.0000000000
 Ni         0.0000000000        0.0000000000        0.0000000000
 Pt         0.0000000000        0.0000000000        0.0000000000
 Pt         0.0000000000        0.0000000000        0.0000000000
 Ni         0.0000000000        0.0000000000        0.0000000000
 Ni         0.0000000000        0.0000000000        0.0000000000
 Pt         0.0000000000        0.0000000000        0.0000000000
 Pt         0.0000000000        0.0000000000        0.0000000000
 Pt         0.0000000000        0.0000000000        0.0000000000
 Pt         0.0000000000        0.0000000000        0.0000000000
 Pt         0.0000000000        0.0000000000        0.0000000000
 Pt         0.0000000000        0.0000000000        0.0000000000
 Ni         0.0000000000        0.0000000000        0.0000000000
 Pt         0.0000000000        0.0000000000        0.0000000000
 Pt         0.0000000000        0.0000000000        0.0000000000
 Pt         0.0000000000        0.0000000000        0.0000000000
 Ni         0.0000000000        0.0000000000        0.0000000000
 Pt         0.0000000000        0.0000000000        0.0000000000
 Ni         0.0000000000        0.0000000000        0.0000000000
 Pt         0.0000000000        0.0000000000        0.0000000000
 Pt         0.0000000000        0.0000000000        0.0000000000
 Pt         0.0000000000        0.0000000000        0.0000000000
 Pt         0.0000000000        0.0000000000        0.0000000000
 Pt         0.0000000000        0.0000000000        0.0000000000
 Pt         0.0000000000        0.0000000000        0.0000000000
 Pt         0.0000000000        0.0000000000        0.0000000000
 Ni         0.0000000000        0.0000000000        0.0000000000
 Pt         0.0000000000        0.0000000000        0.0000000000
 Ni         0.0000000000        0.0000000000        0.0000000000
 Pt         0.0000000000        0.0000000000        0.0000000000
 Ni         0.0000000000        0.0000000000        0.0000000000
 Ni         0.0000000000        0.0000000000        0.0000000000
 Ni         0.0000000000        0.0000000000        0.0000000000
 Ni         0.0000000000        0.0000000000        0.0000000000
 Pt         0.0000000000        0.0000000000        0.0000000000
 Pt         0.0000000000        0.0000000000        0.0000000000
 Pt        -0.0000177785        0.0000065247       -0.0000270455
 Pt        -0.0000027458        0.0000161483       -0.0000155191
 Pt        -0.0000249309        0.0000051490        0.0000582569
 Pt        -0.0000018746        0.0000112405       -0.0000073632
 Pt         0.0000014791       -0.0000207735        0.0000446191
 Pt         0.0000113500       -0.0000197175        0.0000303040
 Pt         0.0000036615       -0.0000116590       -0.0000387600
 Pt         0.0000177800       -0.0000092865       -0.0000300941
 Pt        -0.0000002550        0.0000182428       -0.0000264918
 Pt        -0.0000293087        0.0000123498        0.0000432825
      60
 i =        6, E =     -7949.3263219626
 Pt        -0.0000246027        0.0000088128       -0.0000011857
 Pt        -0.0000251228        0.0000155374        0.0000243666
 Pt        -0.0000358170        0.0000098571        0.0000040426
 Pt        -0.0000337766        0.0000124717       -0.0000071443
 Pt        -0.0000289659        0.0000094927        0.0000070989
 Pt        -0.0000280370        0.0000091083        0.0000005068
 Pt        -0.0000333956        0.0000152734        0.0000098438
 Pt        -0.0000241846        0.0000102474       -0.0000248726
 Pt        -0.0000350554        0.0000151367       -0.0000059576
 Pt        -0.0000299628        0.0000108276       -0.0000035650
 Pt        -0.0000319890        0.0000097231        0.0000062282
 Pt        -0.0000209609        0.0000163871        0.0000098607
 Ni        -0.0000283740       -0.0000048663        0.0000079403
 Ni         0.0000162157       -0.0000023048        0.0000040380
 Ni         0.0000000000        0.0000000000        0.0000000000
 Ni         0.0000000000        0.0000000000        0.0000000000
 Pt         0.0000000000        0.0000000000        0.0000000000
 Pt         0.0000000000        0.0000000000        0.0000000000
 Ni         0.0000000000        0.0000000000        0.0000000000
 Ni         0.0000000000        0.0000000000        0.0000000000
 Pt         0.0000000000        0.0000000000        0.0000000000
 Pt         0.0000000000        0.0000000000        0.0000000000
 Pt         0.0000000000        0.0000000000        0.0000000000
 Pt         0.0000000000        0.0000000000        0.0000000000
 Pt         0.0000000000        0.0000000000        0.0000000000
 Pt         0.0000000000        0.0000000000        0.0000000000
 Ni         0.0000000000        0.0000000000        0.0000000000
 Pt         0.0000000000        0.0000000000        0.0000000000
 Pt         0.0000000000        0.0000000000        0.0000000000
 Pt         0.0000000000        0.0000000000        0.0000000000
 Ni         0.0000000000        0.0000000000        0.0000000000
 Pt         0.0000000000        0.0000000000        0.0000000000
 Ni         0.0000000000        0.0000000000        0.0000000000
 Pt         0.0000000000        0.0000000000        0.0000000000
 Pt         0.0000000000        0.0000000000        0.0000000000
 Pt         0.0000000000        0.0000000000        0.0000000000
 Pt         0.0000000000        0.0000000000        0.0000000000
 Pt         0.0000000000        0.0000000000        0.0000000000
 Pt         0.0000000000        0.0000000000        0.0000000000
 Pt         0.0000000000        0.0000000000        0.0000000000
 Ni         0.0000000000        0.0000000000        0.0000000000
 Pt         0.0000000000        0.0000000000        0.0000000000
 Ni         0.0000000000        0.0000000000        0.0000000000
 Pt         0.0000000000        0.0000000000        0.0000000000
 Ni         0.0000000000        0.0000000000        0.0000000000
 Ni         0.0000000000        0.0000000000        0.0000000000
 Ni         0.0000000000        0.0000000000        0.0000000000
 Ni         0.0000000000        0.0000000000        0.0000000000
 Pt         0.0000000000        0.0000000000        0.0000000000
 Pt         0.0000000000        0.0000000000        0.0000000000
 Pt         0.0000120169        0.0000005960       -0.0000077625
 Pt         0.0000187370        0.0000032308        0.0000011743
 Pt         0.0000092066        0.0000033926        0.0000197886
 Pt         0.0000160275        0.0000052354       -0.0000101301
 Pt         0.0000053802       -0.0000018679        0.0000062270
 Pt         0.0000100158       -0.0000031064        0.0000020677
 Pt         0.0000129020        0.0000007725       -0.0000120152
 Pt         0.0000184418        0.0000042519       -0.0000061538
 Pt         0.0000114199        0.0000009492       -0.0000206494
 Pt         0.0000041557       -0.0000022804        0.0000066729
      60
 i =        7, E =     -7949.3267385542
 Pt        -0.0000246027        0.0000088128       -0.0000011857
 Pt        -0.0000251228        0.0000155374        0.0000243666
 Pt        -0.0000358170        0.0000098571        0.0000040426
 Pt        -0.0000337766        0.0000124717       -0.0000071443
 Pt        -0.0000289659        0.0000094927        0.0000070989
 Pt        -0.0000280370        0.0000091083        0.0000005068
 Pt        -0.0000333956        0.0000152734        0.0000098438
 Pt        -0.0000241846        0.0000102474       -0.0000248726
 Pt        -0.0000350554        0.0000151367       -0.0000059576
 Pt        -0.0000299628        0.0000108276       -0.0000035650
 Pt        -0.0000319890        0.0000097231        0.0000062282
 Pt        -0.0000209609        0.0000163871        0.0000098607
 Ni        -0.0000283740       -0.0000048663        0.0000079403
 Ni         0.0000162157       -0.0000023048        0.0000040380
 Ni         0.0000000000        0.0000000000        0.0000000000
 Ni         0.0000000000        0.0000000000        0.0000000000
 Pt         0.0000000000        0.0000000000        0.0000000000
 Pt         0.0000000000        0.0000000000        0.0000000000
 Ni         0.0000000000        0.0000000000        0.0000000000
 Ni         0.0000000000        0.0000000000        0.0000000000
 Pt         0.0000000000        0.0000000000        0.0000000000
 Pt         0.0000000000        0.0000000000        0.0000000000
 Pt         0.0000000000        0.0000000000        0.0000000000
 Pt         0.0000000000        0.0000000000        0.0000000000
 Pt         0.0000000000        0.0000000000        0.0000000000
 Pt         0.0000000000        0.0000000000        0.0000000000
 Ni         0.0000000000        0.0000000000        0.0000000000
 Pt         0.0000000000        0.0000000000        0.0000000000
 Pt         0.0000000000        0.0000000000        0.0000000000
 Pt         0.0000000000        0.0000000000        0.0000000000
 Ni         0.0000000000        0.0000000000        0.0000000000
 Pt         0.0000000000        0.0000000000        0.0000000000
 Ni         0.0000000000        0.0000000000        0.0000000000
 Pt         0.0000000000        0.0000000000        0.0000000000
 Pt         0.0000000000        0.0000000000        0.0000000000
 Pt         0.0000000000        0.0000000000        0.0000000000
 Pt         0.0000000000        0.0000000000        0.0000000000
 Pt         0.0000000000        0.0000000000        0.0000000000
 Pt         0.0000000000        0.0000000000        0.0000000000
 Pt         0.0000000000        0.0000000000        0.0000000000
 Ni         0.0000000000        0.0000000000        0.0000000000
 Pt         0.0000000000        0.0000000000        0.0000000000
 Ni         0.0000000000        0.0000000000        0.0000000000
 Pt         0.0000000000        0.0000000000        0.0000000000
 Ni         0.0000000000        0.0000000000        0.0000000000
 Ni         0.0000000000        0.0000000000        0.0000000000
 Ni         0.0000000000        0.0000000000        0.0000000000
 Ni         0.0000000000        0.0000000000        0.0000000000
 Pt         0.0000000000        0.0000000000        0.0000000000
 Pt         0.0000000000        0.0000000000        0.0000000000
 Pt         0.0000120169        0.0000005960       -0.0000077625
 Pt         0.0000187370        0.0000032308        0.0000011743
 Pt         0.0000092066        0.0000033926        0.0000197886
 Pt         0.0000160275        0.0000052354       -0.0000101301
 Pt         0.0000053802       -0.0000018679        0.0000062270
 Pt         0.0000100158       -0.0000031064        0.0000020677
 Pt         0.0000129020        0.0000007725       -0.0000120152
 Pt         0.0000184418        0.0000042519       -0.0000061538
 Pt         0.0000114199        0.0000009492       -0.0000206494
 Pt         0.0000041557       -0.0000022804        0.0000066729
