 DBCSR| CPU Multiplication driver                                           XSMM (U)
 DBCSR| Multrec recursion limit                                              512 (U)
 DBCSR| Multiplication stack size                                           1000 (D)
 DBCSR| Maximum elements for images                                    UNLIMITED (U)
 DBCSR| Multiplicative factor virtual images                                   1 (U)
 DBCSR| Use multiplication densification                                       T (D)
 DBCSR| Multiplication size stacks                                             3 (U)
 DBCSR| Use memory pool for CPU allocation                                     F (U)
 DBCSR| Number of 3D layers                                               SINGLE (U)
 DBCSR| Use MPI memory allocation                                              F (U)
 DBCSR| Use RMA algorithm                                                      F (U)
 DBCSR| Use Communication thread                                               T (U)
 DBCSR| Communication thread load                                             87 (D)
 DBCSR| MPI: My process id                                                     0
 DBCSR| MPI: Number of processes                                             128
 DBCSR| OMP: Current number of threads                                         1
 DBCSR| OMP: Max number of threads                                             1
 DBCSR| Split modifier for TAS multiplication algorithm                  1.0E+00 (U)


  **** **** ******  **  PROGRAM STARTED AT               2023-02-15 12:41:37.854
 ***** ** ***  *** **   PROGRAM STARTED ON                             nid004130
 **    ****   ******    PROGRAM STARTED BY                                cahart
 ***** **    ** ** **   PROGRAM PROCESS ID                                102729
  **** **  *******  **  PROGRAM STARTED IN /mnt/lustre/a2fs-work2/work/e05/e05/c
                                           ahart/postdoc/masters/ni/archer2/slab
                                           /optimise/magnetisation/scf_1e-4_temp
                                           -2000_mos-1000_alpha-0.08_beta-1.5_pe
                                           riodic-xyz/search/0.75_0.6

 CP2K| version string:                 CP2K version 2023.1 (Development Version)
 CP2K| source code revision number:                                  git:964cd58
 CP2K| cp2kflags: omp libint fftw3 libxc elpa parallel scalapack xsmm plumed2 mk
 CP2K|            l
 CP2K| is freely available from                            https://www.cp2k.org/
 CP2K| Program compiled at                          Mon 13 Feb 17:05:14 GMT 2023
 CP2K| Program compiled on                                                  ln01
 CP2K| Program compiled for                                              ARCHER2
 CP2K| Data directory path    /work/e05/e05/cahart/cp2k/cp2k-2023.1/cp2k-2023.1-
 CP2K| Input file name                                                  cp2k.inp

 GLOBAL| Force Environment number                                              1
 GLOBAL| Basis set file name                                        BASIS_MOLOPT
 GLOBAL| Potential file name                                      GTH_POTENTIALS
 GLOBAL| MM Potential file name                                     MM_POTENTIAL
 GLOBAL| Coordinate file name                                      __STD_INPUT__
 GLOBAL| Method name                                                        CP2K
 GLOBAL| Project name                                                    Ni_bulk
 GLOBAL| Run type                                                         ENERGY
 GLOBAL| FFT library                                                       FFTW3
 GLOBAL| Diagonalization library                                            ELPA
 GLOBAL| DGEMM library                                                      BLAS
 GLOBAL| Minimum number of eigenvectors for ELPA usage                        16
 GLOBAL| Orthonormality check for eigenvectors                          DISABLED
 GLOBAL| Matrix multiplication library                                 ScaLAPACK
 GLOBAL| All-to-all communication in single precision                          F
 GLOBAL| FFTs using library dependent lengths                                  F
 GLOBAL| Grid backend                                                       AUTO
 GLOBAL| Global print level                                               MEDIUM
 GLOBAL| MPI I/O enabled                                                       T
 GLOBAL| Total number of message passing processes                           128
 GLOBAL| Number of threads for this process                                    1
 GLOBAL| This output is from process                                           0
 GLOBAL| Stack size for threads created by OpenMP (OMP_STACKSIZE)        default
 GLOBAL| CPU model name                          AMD EPYC 7742 64-Core Processor
 GLOBAL| CPUID                                                              1002

 MEMORY| system memory details [Kb]
 MEMORY|                        rank 0           min           max       average
 MEMORY| MemTotal            263528088     263528088     263528088     263528088
 MEMORY| MemFree             239323268     239323268     239323268     239323268
 MEMORY| Buffers                 28904         28904         28904         28904
 MEMORY| Cached                 647384        647384        647384        647384
 MEMORY| Slab                  1473160       1473160       1473248       1473177
 MEMORY| SReclaimable           104936        104936        104936        104936
 MEMORY| MemLikelyFree       240104492     240104492     240104492     240104492


 *** Fundamental physical constants (SI units) ***

 *** Literature: B. J. Mohr and B. N. Taylor,
 ***             CODATA recommended values of the fundamental physical
 ***             constants: 2006, Web Version 5.1
 ***             http://physics.nist.gov/constants

 Speed of light in vacuum [m/s]                             2.99792458000000E+08
 Magnetic constant or permeability of vacuum [N/A**2]       1.25663706143592E-06
 Electric constant or permittivity of vacuum [F/m]          8.85418781762039E-12
 Planck constant (h) [J*s]                                  6.62606896000000E-34
 Planck constant (h-bar) [J*s]                              1.05457162825177E-34
 Elementary charge [C]                                      1.60217648700000E-19
 Electron mass [kg]                                         9.10938215000000E-31
 Electron g factor [ ]                                     -2.00231930436220E+00
 Proton mass [kg]                                           1.67262163700000E-27
 Fine-structure constant                                    7.29735253760000E-03
 Rydberg constant [1/m]                                     1.09737315685270E+07
 Avogadro constant [1/mol]                                  6.02214179000000E+23
 Boltzmann constant [J/K]                                   1.38065040000000E-23
 Atomic mass unit [kg]                                      1.66053878200000E-27
 Bohr radius [m]                                            5.29177208590000E-11

 *** Conversion factors ***

 [u] -> [a.u.]                                              1.82288848426455E+03
 [Angstrom] -> [Bohr] = [a.u.]                              1.88972613288564E+00
 [a.u.] = [Bohr] -> [Angstrom]                              5.29177208590000E-01
 [a.u.] -> [s]                                              2.41888432650478E-17
 [a.u.] -> [fs]                                             2.41888432650478E-02
 [a.u.] -> [J]                                              4.35974393937059E-18
 [a.u.] -> [N]                                              8.23872205491840E-08
 [a.u.] -> [K]                                              3.15774647902944E+05
 [a.u.] -> [kJ/mol]                                         2.62549961709828E+03
 [a.u.] -> [kcal/mol]                                       6.27509468713739E+02
 [a.u.] -> [Pa]                                             2.94210107994716E+13
 [a.u.] -> [bar]                                            2.94210107994716E+08
 [a.u.] -> [atm]                                            2.90362800883016E+08
 [a.u.] -> [eV]                                             2.72113838565563E+01
 [a.u.] -> [Hz]                                             6.57968392072181E+15
 [a.u.] -> [1/cm] (wave numbers)                            2.19474631370540E+05
 [a.u./Bohr**2] -> [1/cm]                                   5.14048714338585E+03
 

 CELL_TOP| Volume [angstrom^3]:                                       983.249569
 CELL_TOP| Vector a [angstrom     7.012     0.000     0.000   |a| =     7.011596
 CELL_TOP| Vector b [angstrom     0.000     7.012     0.000   |b| =     7.011596
 CELL_TOP| Vector c [angstrom     0.000     0.000    20.000   |c| =    20.000000
 CELL_TOP| Angle (b,c), alpha [degree]:                                90.000000
 CELL_TOP| Angle (a,c), beta  [degree]:                                90.000000
 CELL_TOP| Angle (a,b), gamma [degree]:                                90.000000
 CELL_TOP| Numerically orthorhombic:                                         YES
 CELL_TOP| Periodicity                                                       XYZ

 GENERATE|  Preliminary Number of Bonds generated:                             0
 GENERATE|  Achieved consistency in connectivity generation.

 CELL| Volume [angstrom^3]:                                           983.249569
 CELL| Vector a [angstrom]:       7.012     0.000     0.000   |a| =     7.011596
 CELL| Vector b [angstrom]:       0.000     7.012     0.000   |b| =     7.011596
 CELL| Vector c [angstrom]:       0.000     0.000    20.000   |c| =    20.000000
 CELL| Angle (b,c), alpha [degree]:                                    90.000000
 CELL| Angle (a,c), beta  [degree]:                                    90.000000
 CELL| Angle (a,b), gamma [degree]:                                    90.000000
 CELL| Numerically orthorhombic:                                             YES
 CELL| Periodicity                                                           XYZ

 CELL_REF| Volume [angstrom^3]:                                       983.249569
 CELL_REF| Vector a [angstrom     7.012     0.000     0.000   |a| =     7.011596
 CELL_REF| Vector b [angstrom     0.000     7.012     0.000   |b| =     7.011596
 CELL_REF| Vector c [angstrom     0.000     0.000    20.000   |c| =    20.000000
 CELL_REF| Angle (b,c), alpha [degree]:                                90.000000
 CELL_REF| Angle (a,c), beta  [degree]:                                90.000000
 CELL_REF| Angle (a,b), gamma [degree]:                                90.000000
 CELL_REF| Numerically orthorhombic:                                         YES
 CELL_REF| Periodicity                                                       XYZ

 *** WARNING in cryssym.F:165 :: Symmetry library SPGLIB not available ***


 *******************************************************************************
                                    Kpoints
 *******************************************************************************
 BRILLOUIN| K-point scheme                                        Monkhorst-Pack
 BRILLOUIN| K-Point grid                                             4    4    1
 BRILLOUIN| Accuracy in Symmetry determination                      0.100000E-05
 BRILLOUIN| K-Point point group symmetrization                               OFF
 BRILLOUIN| Wavefunction type                                            COMPLEX
 BRILLOUIN| List of Kpoints [2 Pi/Bohr]                                        8
 BRILLOUIN| Number           Weight            X              Y              Z
 BRILLOUIN|     1           0.12500       -0.37500       -0.37500        0.00000
 BRILLOUIN|     2           0.12500       -0.37500       -0.12500        0.00000
 BRILLOUIN|     3           0.12500       -0.37500        0.12500        0.00000
 BRILLOUIN|     4           0.12500       -0.37500        0.37500        0.00000
 BRILLOUIN|     5           0.12500       -0.12500       -0.37500        0.00000
 BRILLOUIN|     6           0.12500       -0.12500       -0.12500        0.00000
 BRILLOUIN|     7           0.12500       -0.12500        0.12500        0.00000
 BRILLOUIN|     8           0.12500       -0.12500        0.37500        0.00000
 *******************************************************************************

 *******************************************************************************
 *******************************************************************************
 **                                                                           **
 **     #####                         ##              ##                      **
 **    ##   ##            ##          ##              ##                      **
 **   ##     ##                       ##            ######                    **
 **   ##     ##  ##   ##  ##   #####  ##  ##   ####   ##    #####    #####    **
 **   ##     ##  ##   ##  ##  ##      ## ##   ##      ##   ##   ##  ##   ##   **
 **   ##  ## ##  ##   ##  ##  ##      ####     ###    ##   ######   ######    **
 **    ##  ###   ##   ##  ##  ##      ## ##      ##   ##   ##       ##        **
 **     #######   #####   ##   #####  ##  ##  ####    ##    #####   ##        **
 **           ##                                                    ##        **
 **                                                                           **
 **                                                ... make the atoms dance   **
 **                                                                           **
 **            Copyright (C) by CP2K developers group (2000-2023)             **
 **                      J. Chem. Phys. 152, 194103 (2020)                    **
 **                                                                           **
 *******************************************************************************

 *** WARNING in qs_environment.F:1456 :: Number of electrons will be ***
 *** overwritten by NELEC_ALPHA and NELEC_BETA, multiplicity will be ***
 *** ignored.                                                        ***

 Number of electrons should be                                               576
 Sum of NELEC_ALPHA and NELEC_BETA is                                    576.000

 *** WARNING in qs_environment.F:1488 :: NELEC_ALPHA is not an integer, ***
 *** many features will not be supported.                               ***


 *** WARNING in qs_environment.F:1500 :: NELEC_BETA is not an integer, ***
 *** many features will not be supported.                              ***


 *** WARNING in qs_environment.F:1532 :: More ADDED_MOs requested for beta ***
 *** spin than available.                                                  ***


 *** WARNING in qs_environment.F:1548 :: More added MOs requested than     ***
 *** available. The full set of unoccupied MOs will be used. Use           ***
 *** 'ADDED_MOS -1' to always use all available MOs and to get rid of this ***
 *** warning.                                                              ***


 DFT| Spin unrestricted (spin-polarized) Kohn-Sham calculation               UKS
 DFT| Multiplicity                                                             1
 DFT| Number of spin states                                                    2
 DFT| Charge                                                                   0
 DFT| Self-interaction correction (SIC)                                       NO
 DFT| Cutoffs: density                                              1.000000E-10
 DFT|          gradient                                             1.000000E-10
 DFT|          tau                                                  1.000000E-10
 DFT|          cutoff_smoothing_range                               0.000000E+00
 DFT| XC density smoothing                                                  NONE
 DFT| XC derivatives                                                          PW

 FUNCTIONAL| PBE:
 FUNCTIONAL| J.P.Perdew, K.Burke, M.Ernzerhof, Phys. Rev. Letter, vol. 77, n 18,
 FUNCTIONAL|  pp. 3865-3868, (1996){spin polarized}                             

 vdW POTENTIAL|                                                   Pair Potential
 vdW POTENTIAL|          DFT-D3 (Version 3.1)
 vdW POTENTIAL|          Potential Form: S. Grimme et al, JCP 132: 154104 (2010)
 vdW POTENTIAL|          Zero Damping
 vdW POTENTIAL|          Cutoff Radius [Bohr]:                             20.00
 vdW POTENTIAL|          s6 Scaling Factor:                               1.0000
 vdW POTENTIAL|          sr6 Scaling Factor:                              1.2170
 vdW POTENTIAL|          s8 Scaling Factor:                               0.7220
 vdW POTENTIAL|          Cutoff for CN calculation:                   0.1000E-05

 QS| Method:                                                                 GPW
 QS| Density plane wave grid type                        NON-SPHERICAL FULLSPACE
 QS| Number of grid levels:                                                    5
 QS| Density cutoff [a.u.]:                                                300.0
 QS| Multi grid cutoff [a.u.]: 1) grid level                               300.0
 QS|                           2) grid level                               100.0
 QS|                           3) grid level                                33.3
 QS|                           4) grid level                                11.1
 QS|                           5) grid level                                 3.7
 QS| Grid level progression factor:                                          3.0
 QS| Relative density cutoff [a.u.]:                                        30.0
 QS| Interaction thresholds: eps_pgf_orb:                                1.0E-06
 QS|                         eps_filter_matrix:                          0.0E+00
 QS|                         eps_core_charge:                            1.0E-14
 QS|                         eps_rho_gspace:                             1.0E-12
 QS|                         eps_rho_rspace:                             1.0E-12
 QS|                         eps_gvg_rspace:                             1.0E-06
 QS|                         eps_ppl:                                    1.0E-02
 QS|                         eps_ppnl:                                   1.0E-08


 ATOMIC KIND INFORMATION

  1. Atomic kind: Ni_i                                  Number of atoms:      16

     Orbital Basis Set                                        DZVP-MOLOPT-SR-GTH

       Number of orbital shell sets:                                           1
       Number of orbital shells:                                               8
       Number of primitive Cartesian functions:                                6
       Number of Cartesian basis functions:                                   31
       Number of spherical basis functions:                                   26
       Norm type:                                                              2

       Normalised Cartesian orbitals:

                        Set   Shell   Orbital            Exponent    Coefficient

                          1       1    2s               10.077428      -0.684558
                                                         5.847736      -0.844524
                                                         2.494033       1.088856
                                                         0.988355       0.395503
                                                         0.344978       0.010224
                                                         0.099466      -0.003250

                          1       2    3s               10.077428       0.096747
                                                         5.847736       0.162504
                                                         2.494033      -0.297192
                                                         0.988355      -0.319752
                                                         0.344978       0.088318
                                                         0.099466       0.118587

                          1       3    4s               10.077428       0.036437
                                                         5.847736      -0.381480
                                                         2.494033       0.003759
                                                         0.988355      -1.048256
                                                         0.344978       0.855825
                                                         0.099466      -0.176350

                          1       4    3px              10.077428      -3.133913
                                                         5.847736       3.027656
                                                         2.494033       2.353227
                                                         0.988355       0.554184
                                                         0.344978       0.019462
                                                         0.099466      -0.000291
                          1       4    3py              10.077428      -3.133913
                                                         5.847736       3.027656
                                                         2.494033       2.353227
                                                         0.988355       0.554184
                                                         0.344978       0.019462
                                                         0.099466      -0.000291
                          1       4    3pz              10.077428      -3.133913
                                                         5.847736       3.027656
                                                         2.494033       2.353227
                                                         0.988355       0.554184
                                                         0.344978       0.019462
                                                         0.099466      -0.000291

                          1       5    4px              10.077428      -0.112729
                                                         5.847736      -0.114008
                                                         2.494033      -0.347303
                                                         0.988355      -0.110323
                                                         0.344978       0.154096
                                                         0.099466       0.058386
                          1       5    4py              10.077428      -0.112729
                                                         5.847736      -0.114008
                                                         2.494033      -0.347303
                                                         0.988355      -0.110323
                                                         0.344978       0.154096
                                                         0.099466       0.058386
                          1       5    4pz              10.077428      -0.112729
                                                         5.847736      -0.114008
                                                         2.494033      -0.347303
                                                         0.988355      -0.110323
                                                         0.344978       0.154096
                                                         0.099466       0.058386

                          1       6    4dx2             10.077428       8.232726
                                                         5.847736       9.105758
                                                         2.494033       2.849835
                                                         0.988355       0.554319
                                                         0.344978       0.067245
                                                         0.099466       0.001940
                          1       6    4dxy             10.077428      14.259500
                                                         5.847736      15.771636
                                                         2.494033       4.936060
                                                         0.988355       0.960109
                                                         0.344978       0.116472
                                                         0.099466       0.003360
                          1       6    4dxz             10.077428      14.259500
                                                         5.847736      15.771636
                                                         2.494033       4.936060
                                                         0.988355       0.960109
                                                         0.344978       0.116472
                                                         0.099466       0.003360
                          1       6    4dy2             10.077428       8.232726
                                                         5.847736       9.105758
                                                         2.494033       2.849835
                                                         0.988355       0.554319
                                                         0.344978       0.067245
                                                         0.099466       0.001940
                          1       6    4dyz             10.077428      14.259500
                                                         5.847736      15.771636
                                                         2.494033       4.936060
                                                         0.988355       0.960109
                                                         0.344978       0.116472
                                                         0.099466       0.003360
                          1       6    4dz2             10.077428       8.232726
                                                         5.847736       9.105758
                                                         2.494033       2.849835
                                                         0.988355       0.554319
                                                         0.344978       0.067245
                                                         0.099466       0.001940

                          1       7    5dx2             10.077428      -2.715373
                                                         5.847736      -4.020640
                                                         2.494033      -1.397569
                                                         0.988355      -0.076143
                                                         0.344978       0.033435
                                                         0.099466       0.026032
                          1       7    5dxy             10.077428      -4.703164
                                                         5.847736      -6.963952
                                                         2.494033      -2.420661
                                                         0.988355      -0.131883
                                                         0.344978       0.057911
                                                         0.099466       0.045088
                          1       7    5dxz             10.077428      -4.703164
                                                         5.847736      -6.963952
                                                         2.494033      -2.420661
                                                         0.988355      -0.131883
                                                         0.344978       0.057911
                                                         0.099466       0.045088
                          1       7    5dy2             10.077428      -2.715373
                                                         5.847736      -4.020640
                                                         2.494033      -1.397569
                                                         0.988355      -0.076143
                                                         0.344978       0.033435
                                                         0.099466       0.026032
                          1       7    5dyz             10.077428      -4.703164
                                                         5.847736      -6.963952
                                                         2.494033      -2.420661
                                                         0.988355      -0.131883
                                                         0.344978       0.057911
                                                         0.099466       0.045088
                          1       7    5dz2             10.077428      -2.715373
                                                         5.847736      -4.020640
                                                         2.494033      -1.397569
                                                         0.988355      -0.076143
                                                         0.344978       0.033435
                                                         0.099466       0.026032

                          1       8    5fx3             10.077428      -0.467694
                                                         5.847736       0.618100
                                                         2.494033       0.066069
                                                         0.988355       0.262898
                                                         0.344978       0.004720
                                                         0.099466       0.007748
                          1       8    5fx2y            10.077428      -1.045795
                                                         5.847736       1.382114
                                                         2.494033       0.147734
                                                         0.988355       0.587859
                                                         0.344978       0.010555
                                                         0.099466       0.017325
                          1       8    5fx2z            10.077428      -1.045795
                                                         5.847736       1.382114
                                                         2.494033       0.147734
                                                         0.988355       0.587859
                                                         0.344978       0.010555
                                                         0.099466       0.017325
                          1       8    5fxy2            10.077428      -1.045795
                                                         5.847736       1.382114
                                                         2.494033       0.147734
                                                         0.988355       0.587859
                                                         0.344978       0.010555
                                                         0.099466       0.017325
                          1       8    5fxyz            10.077428      -1.811371
                                                         5.847736       2.393892
                                                         2.494033       0.255883
                                                         0.988355       1.018201
                                                         0.344978       0.018282
                                                         0.099466       0.030008
                          1       8    5fxz2            10.077428      -1.045795
                                                         5.847736       1.382114
                                                         2.494033       0.147734
                                                         0.988355       0.587859
                                                         0.344978       0.010555
                                                         0.099466       0.017325
                          1       8    5fy3             10.077428      -0.467694
                                                         5.847736       0.618100
                                                         2.494033       0.066069
                                                         0.988355       0.262898
                                                         0.344978       0.004720
                                                         0.099466       0.007748
                          1       8    5fy2z            10.077428      -1.045795
                                                         5.847736       1.382114
                                                         2.494033       0.147734
                                                         0.988355       0.587859
                                                         0.344978       0.010555
                                                         0.099466       0.017325
                          1       8    5fyz2            10.077428      -1.045795
                                                         5.847736       1.382114
                                                         2.494033       0.147734
                                                         0.988355       0.587859
                                                         0.344978       0.010555
                                                         0.099466       0.017325
                          1       8    5fz3             10.077428      -0.467694
                                                         5.847736       0.618100
                                                         2.494033       0.066069
                                                         0.988355       0.262898
                                                         0.344978       0.004720
                                                         0.099466       0.007748

       Atomic covalent radius [Angstrom]:                                  1.150

       Atomic van der Waals radius [Angstrom]:                             1.630

     GTH Potential information for                                   GTH-PBE-q18

       Description:                       Goedecker-Teter-Hutter pseudopotential
                                           Goedecker et al., PRB 54, 1703 (1996)
                                          Hartwigsen et al., PRB 58, 3641 (1998)
                                                      Krack, TCA 114, 145 (2005)

       Gaussian exponent of the core charge distribution:               4.081633
       Electronic configuration (s p d ...):                           4   6   8

       Parameters of the local part of the GTH pseudopotential:

                          rloc        C1          C2          C3          C4
                        0.350000    2.102166    0.648484

       Parameters of the non-local part of the GTH pseudopotential:

                   l      r(l)      h(i,j,l)

                   0    0.261295    0.622658    9.970227
                                    9.970227  -12.871507
                   1    0.224253  -11.142708   12.429566
                                   12.429566  -14.706861
                   2    0.215348  -12.628146

  2. Atomic kind: Ni_b                                  Number of atoms:      16

     Orbital Basis Set                                        DZVP-MOLOPT-SR-GTH

       Number of orbital shell sets:                                           1
       Number of orbital shells:                                               8
       Number of primitive Cartesian functions:                                6
       Number of Cartesian basis functions:                                   31
       Number of spherical basis functions:                                   26
       Norm type:                                                              2

       Normalised Cartesian orbitals:

                        Set   Shell   Orbital            Exponent    Coefficient

                          1       1    2s               10.077428      -0.684558
                                                         5.847736      -0.844524
                                                         2.494033       1.088856
                                                         0.988355       0.395503
                                                         0.344978       0.010224
                                                         0.099466      -0.003250

                          1       2    3s               10.077428       0.096747
                                                         5.847736       0.162504
                                                         2.494033      -0.297192
                                                         0.988355      -0.319752
                                                         0.344978       0.088318
                                                         0.099466       0.118587

                          1       3    4s               10.077428       0.036437
                                                         5.847736      -0.381480
                                                         2.494033       0.003759
                                                         0.988355      -1.048256
                                                         0.344978       0.855825
                                                         0.099466      -0.176350

                          1       4    3px              10.077428      -3.133913
                                                         5.847736       3.027656
                                                         2.494033       2.353227
                                                         0.988355       0.554184
                                                         0.344978       0.019462
                                                         0.099466      -0.000291
                          1       4    3py              10.077428      -3.133913
                                                         5.847736       3.027656
                                                         2.494033       2.353227
                                                         0.988355       0.554184
                                                         0.344978       0.019462
                                                         0.099466      -0.000291
                          1       4    3pz              10.077428      -3.133913
                                                         5.847736       3.027656
                                                         2.494033       2.353227
                                                         0.988355       0.554184
                                                         0.344978       0.019462
                                                         0.099466      -0.000291

                          1       5    4px              10.077428      -0.112729
                                                         5.847736      -0.114008
                                                         2.494033      -0.347303
                                                         0.988355      -0.110323
                                                         0.344978       0.154096
                                                         0.099466       0.058386
                          1       5    4py              10.077428      -0.112729
                                                         5.847736      -0.114008
                                                         2.494033      -0.347303
                                                         0.988355      -0.110323
                                                         0.344978       0.154096
                                                         0.099466       0.058386
                          1       5    4pz              10.077428      -0.112729
                                                         5.847736      -0.114008
                                                         2.494033      -0.347303
                                                         0.988355      -0.110323
                                                         0.344978       0.154096
                                                         0.099466       0.058386

                          1       6    4dx2             10.077428       8.232726
                                                         5.847736       9.105758
                                                         2.494033       2.849835
                                                         0.988355       0.554319
                                                         0.344978       0.067245
                                                         0.099466       0.001940
                          1       6    4dxy             10.077428      14.259500
                                                         5.847736      15.771636
                                                         2.494033       4.936060
                                                         0.988355       0.960109
                                                         0.344978       0.116472
                                                         0.099466       0.003360
                          1       6    4dxz             10.077428      14.259500
                                                         5.847736      15.771636
                                                         2.494033       4.936060
                                                         0.988355       0.960109
                                                         0.344978       0.116472
                                                         0.099466       0.003360
                          1       6    4dy2             10.077428       8.232726
                                                         5.847736       9.105758
                                                         2.494033       2.849835
                                                         0.988355       0.554319
                                                         0.344978       0.067245
                                                         0.099466       0.001940
                          1       6    4dyz             10.077428      14.259500
                                                         5.847736      15.771636
                                                         2.494033       4.936060
                                                         0.988355       0.960109
                                                         0.344978       0.116472
                                                         0.099466       0.003360
                          1       6    4dz2             10.077428       8.232726
                                                         5.847736       9.105758
                                                         2.494033       2.849835
                                                         0.988355       0.554319
                                                         0.344978       0.067245
                                                         0.099466       0.001940

                          1       7    5dx2             10.077428      -2.715373
                                                         5.847736      -4.020640
                                                         2.494033      -1.397569
                                                         0.988355      -0.076143
                                                         0.344978       0.033435
                                                         0.099466       0.026032
                          1       7    5dxy             10.077428      -4.703164
                                                         5.847736      -6.963952
                                                         2.494033      -2.420661
                                                         0.988355      -0.131883
                                                         0.344978       0.057911
                                                         0.099466       0.045088
                          1       7    5dxz             10.077428      -4.703164
                                                         5.847736      -6.963952
                                                         2.494033      -2.420661
                                                         0.988355      -0.131883
                                                         0.344978       0.057911
                                                         0.099466       0.045088
                          1       7    5dy2             10.077428      -2.715373
                                                         5.847736      -4.020640
                                                         2.494033      -1.397569
                                                         0.988355      -0.076143
                                                         0.344978       0.033435
                                                         0.099466       0.026032
                          1       7    5dyz             10.077428      -4.703164
                                                         5.847736      -6.963952
                                                         2.494033      -2.420661
                                                         0.988355      -0.131883
                                                         0.344978       0.057911
                                                         0.099466       0.045088
                          1       7    5dz2             10.077428      -2.715373
                                                         5.847736      -4.020640
                                                         2.494033      -1.397569
                                                         0.988355      -0.076143
                                                         0.344978       0.033435
                                                         0.099466       0.026032

                          1       8    5fx3             10.077428      -0.467694
                                                         5.847736       0.618100
                                                         2.494033       0.066069
                                                         0.988355       0.262898
                                                         0.344978       0.004720
                                                         0.099466       0.007748
                          1       8    5fx2y            10.077428      -1.045795
                                                         5.847736       1.382114
                                                         2.494033       0.147734
                                                         0.988355       0.587859
                                                         0.344978       0.010555
                                                         0.099466       0.017325
                          1       8    5fx2z            10.077428      -1.045795
                                                         5.847736       1.382114
                                                         2.494033       0.147734
                                                         0.988355       0.587859
                                                         0.344978       0.010555
                                                         0.099466       0.017325
                          1       8    5fxy2            10.077428      -1.045795
                                                         5.847736       1.382114
                                                         2.494033       0.147734
                                                         0.988355       0.587859
                                                         0.344978       0.010555
                                                         0.099466       0.017325
                          1       8    5fxyz            10.077428      -1.811371
                                                         5.847736       2.393892
                                                         2.494033       0.255883
                                                         0.988355       1.018201
                                                         0.344978       0.018282
                                                         0.099466       0.030008
                          1       8    5fxz2            10.077428      -1.045795
                                                         5.847736       1.382114
                                                         2.494033       0.147734
                                                         0.988355       0.587859
                                                         0.344978       0.010555
                                                         0.099466       0.017325
                          1       8    5fy3             10.077428      -0.467694
                                                         5.847736       0.618100
                                                         2.494033       0.066069
                                                         0.988355       0.262898
                                                         0.344978       0.004720
                                                         0.099466       0.007748
                          1       8    5fy2z            10.077428      -1.045795
                                                         5.847736       1.382114
                                                         2.494033       0.147734
                                                         0.988355       0.587859
                                                         0.344978       0.010555
                                                         0.099466       0.017325
                          1       8    5fyz2            10.077428      -1.045795
                                                         5.847736       1.382114
                                                         2.494033       0.147734
                                                         0.988355       0.587859
                                                         0.344978       0.010555
                                                         0.099466       0.017325
                          1       8    5fz3             10.077428      -0.467694
                                                         5.847736       0.618100
                                                         2.494033       0.066069
                                                         0.988355       0.262898
                                                         0.344978       0.004720
                                                         0.099466       0.007748

       Atomic covalent radius [Angstrom]:                                  1.150

       Atomic van der Waals radius [Angstrom]:                             1.630

     GTH Potential information for                                   GTH-PBE-q18

       Description:                       Goedecker-Teter-Hutter pseudopotential
                                           Goedecker et al., PRB 54, 1703 (1996)
                                          Hartwigsen et al., PRB 58, 3641 (1998)
                                                      Krack, TCA 114, 145 (2005)

       Gaussian exponent of the core charge distribution:               4.081633
       Electronic configuration (s p d ...):                           4   6   8

       Parameters of the local part of the GTH pseudopotential:

                          rloc        C1          C2          C3          C4
                        0.350000    2.102166    0.648484

       Parameters of the non-local part of the GTH pseudopotential:

                   l      r(l)      h(i,j,l)

                   0    0.261295    0.622658    9.970227
                                    9.970227  -12.871507
                   1    0.224253  -11.142708   12.429566
                                   12.429566  -14.706861
                   2    0.215348  -12.628146


 MOLECULE KIND INFORMATION


 All atoms are their own molecule, skipping detailed information


 TOTAL NUMBERS AND MAXIMUM NUMBERS

  Total number of            - Atomic kinds:                                   2
                             - Atoms:                                         32
                             - Shell sets:                                    32
                             - Shells:                                       256
                             - Primitive Cartesian functions:                192
                             - Cartesian basis functions:                    992
                             - Spherical basis functions:                    832

  Maximum angular momentum of- Orbital basis functions:                        3
                             - Local part of the GTH pseudopotential:          2
                             - Non-local part of the GTH pseudopotential:      3


 MODULE QUICKSTEP: ATOMIC COORDINATES IN ANGSTROM

   Atom Kind Element         X             Y             Z       Z(eff)     Mass
      1    1 Ni   28      0.876298      0.876298      7.370500  18.0000  58.6934
      2    1 Ni   28      0.876298      4.382298      7.370500  18.0000  58.6934
      3    1 Ni   28      2.629298      2.629298      7.370500  18.0000  58.6934
      4    1 Ni   28      2.629298      6.135298      7.370500  18.0000  58.6934
      5    1 Ni   28      4.382298      0.876298      7.370500  18.0000  58.6934
      6    1 Ni   28      4.382298      4.382298      7.370500  18.0000  58.6934
      7    1 Ni   28      6.135298      2.629298      7.370500  18.0000  58.6934
      8    1 Ni   28      6.135298      6.135298      7.370500  18.0000  58.6934
      9    2 Ni   28      0.876298      2.629298      9.123500  18.0000  58.6934
     10    2 Ni   28      0.876298      6.135298      9.123500  18.0000  58.6934
     11    2 Ni   28      2.629298      0.876298      9.123500  18.0000  58.6934
     12    2 Ni   28      2.629298      4.382298      9.123500  18.0000  58.6934
     13    2 Ni   28      4.382298      2.629298      9.123500  18.0000  58.6934
     14    2 Ni   28      4.382298      6.135298      9.123500  18.0000  58.6934
     15    2 Ni   28      6.135298      0.876298      9.123500  18.0000  58.6934
     16    2 Ni   28      6.135298      4.382298      9.123500  18.0000  58.6934
     17    2 Ni   28      0.876298      0.876298     10.876500  18.0000  58.6934
     18    2 Ni   28      0.876298      4.382298     10.876500  18.0000  58.6934
     19    2 Ni   28      2.629298      2.629298     10.876500  18.0000  58.6934
     20    2 Ni   28      2.629298      6.135298     10.876500  18.0000  58.6934
     21    2 Ni   28      4.382298      0.876298     10.876500  18.0000  58.6934
     22    2 Ni   28      4.382298      4.382298     10.876500  18.0000  58.6934
     23    2 Ni   28      6.135298      2.629298     10.876500  18.0000  58.6934
     24    2 Ni   28      6.135298      6.135298     10.876500  18.0000  58.6934
     25    1 Ni   28      0.876298      2.629298     12.629500  18.0000  58.6934
     26    1 Ni   28      0.876298      6.135298     12.629500  18.0000  58.6934
     27    1 Ni   28      2.629298      0.876298     12.629500  18.0000  58.6934
     28    1 Ni   28      2.629298      4.382298     12.629500  18.0000  58.6934
     29    1 Ni   28      4.382298      2.629298     12.629500  18.0000  58.6934
     30    1 Ni   28      4.382298      6.135298     12.629500  18.0000  58.6934
     31    1 Ni   28      6.135298      0.876298     12.629500  18.0000  58.6934
     32    1 Ni   28      6.135298      4.382298     12.629500  18.0000  58.6934



 SCF PARAMETERS         Density guess:                                    ATOMIC
                        --------------------------------------------------------
                        max_scf:                                             500
                        max_scf_history:                                       0
                        max_diis:                                              4
                        --------------------------------------------------------
                        eps_scf:                                        1.00E-04
                        eps_scf_history:                                0.00E+00
                        eps_diis:                                       1.00E-01
                        eps_eigval:                                     1.00E-05
                        --------------------------------------------------------
                        level_shift [a.u.]:                             0.000000
                        added MOs                                       533  554
                        --------------------------------------------------------
                        Mixing method:                            BROYDEN_MIXING
                                                charge density mixing in g-space
                        --------------------------------------------------------
                        Smear method:                                FERMI_DIRAC
                        Electronic temperature [K]:                       2000.0
                        Electronic temperature [a.u.]:                  6.33E-03
                        Accuracy threshold:                             1.00E-10
                        --------------------------------------------------------
                        No outer SCF

 PW_GRID| Information for grid number                                          1
 PW_GRID| Grid distributed over                                   128 processors
 PW_GRID| Real space group dimensions                                     8   16
 PW_GRID| the grid is blocked:                                               YES
 PW_GRID| Cutoff [a.u.]                                                    300.0
 PW_GRID| spherical cutoff:                                                   NO
 PW_GRID|   Bounds   1            -54      53                Points:         108
 PW_GRID|   Bounds   2            -54      53                Points:         108
 PW_GRID|   Bounds   3           -150     149                Points:         300
 PW_GRID| Volume element (a.u.^3)  0.1896E-02     Volume (a.u.^3)      6635.2971
 PW_GRID| Grid span                                                    FULLSPACE
 PW_GRID|   Distribution                         Average         Max         Min
 PW_GRID|   G-Vectors                            27337.5       28728       25272
 PW_GRID|   G-Rays                                 253.1         266         234
 PW_GRID|   Real Space Points                    27337.5       28728       25272

 PW_GRID| Information for grid number                                          2
 PW_GRID| Number of the reference grid                                         1
 PW_GRID| Grid distributed over                                   128 processors
 PW_GRID| Real space group dimensions                                     8   16
 PW_GRID| the grid is blocked:                                                NO
 PW_GRID| Cutoff [a.u.]                                                    100.0
 PW_GRID| spherical cutoff:                                                   NO
 PW_GRID|   Bounds   1            -30      29                Points:          60
 PW_GRID|   Bounds   2            -30      29                Points:          60
 PW_GRID|   Bounds   3            -90      89                Points:         180
 PW_GRID| Volume element (a.u.^3)  0.1024E-01     Volume (a.u.^3)      6635.2971
 PW_GRID| Grid span                                                    FULLSPACE
 PW_GRID|   Distribution                         Average         Max         Min
 PW_GRID|   G-Vectors                             5062.5       15960           0
 PW_GRID|   G-Rays                                  84.4         266           0
 PW_GRID|   Real Space Points                     5062.5        5760        3780

 PW_GRID| Information for grid number                                          3
 PW_GRID| Number of the reference grid                                         1
 PW_GRID| Grid distributed over                                   128 processors
 PW_GRID| Real space group dimensions                                     8   16
 PW_GRID| the grid is blocked:                                                NO
 PW_GRID| Cutoff [a.u.]                                                     33.3
 PW_GRID| spherical cutoff:                                                   NO
 PW_GRID|   Bounds   1            -18      17                Points:          36
 PW_GRID|   Bounds   2            -18      17                Points:          36
 PW_GRID|   Bounds   3            -50      49                Points:         100
 PW_GRID| Volume element (a.u.^3)  0.5120E-01     Volume (a.u.^3)      6635.2971
 PW_GRID| Grid span                                                    FULLSPACE
 PW_GRID|   Distribution                         Average         Max         Min
 PW_GRID|   G-Vectors                             1012.5        9576           0
 PW_GRID|   G-Rays                                  28.1         266           0
 PW_GRID|   Real Space Points                     1012.5        1500         800

 PW_GRID| Information for grid number                                          4
 PW_GRID| Number of the reference grid                                         1
 PW_GRID| Grid distributed over                                   128 processors
 PW_GRID| Real space group dimensions                                     8   16
 PW_GRID| the grid is blocked:                                                NO
 PW_GRID| Cutoff [a.u.]                                                     11.1
 PW_GRID| spherical cutoff:                                                   NO
 PW_GRID|   Bounds   1            -10       9                Points:          20
 PW_GRID|   Bounds   2            -10       9                Points:          20
 PW_GRID|   Bounds   3            -30      29                Points:          60
 PW_GRID| Volume element (a.u.^3)  0.2765         Volume (a.u.^3)      6635.2971
 PW_GRID| Grid span                                                    FULLSPACE
 PW_GRID|   Distribution                         Average         Max         Min
 PW_GRID|   G-Vectors                              187.5        3800           0
 PW_GRID|   G-Rays                                   9.4         190           0
 PW_GRID|   Real Space Points                      187.5         360         120

 PW_GRID| Information for grid number                                          5
 PW_GRID| Number of the reference grid                                         1
 PW_GRID| Grid distributed over                                   128 processors
 PW_GRID| Real space group dimensions                                     8   16
 PW_GRID| the grid is blocked:                                                NO
 PW_GRID| Cutoff [a.u.]                                                      3.7
 PW_GRID| spherical cutoff:                                                   NO
 PW_GRID|   Bounds   1             -6       5                Points:          12
 PW_GRID|   Bounds   2             -6       5                Points:          12
 PW_GRID|   Bounds   3            -18      17                Points:          36
 PW_GRID| Volume element (a.u.^3)   1.280         Volume (a.u.^3)      6635.2971
 PW_GRID| Grid span                                                    FULLSPACE
 PW_GRID|   Distribution                         Average         Max         Min
 PW_GRID|   G-Vectors                               40.5        1296           0
 PW_GRID|   G-Rays                                   3.4         108           0
 PW_GRID|   Real Space Points                       40.5          72           0

 POISSON| Solver                                                        PERIODIC
 POISSON| Periodicity                                                        XYZ

 RS_GRID| Information for grid number                                          1
 RS_GRID|   Bounds   1            -54      53                Points:         108
 RS_GRID|   Bounds   2            -54      53                Points:         108
 RS_GRID|   Bounds   3           -150     149                Points:         300
 RS_GRID| Real space distribution over                                  8 groups
 RS_GRID| Real space distribution along direction                              2
 RS_GRID| Border size                                                         28
 RS_GRID| Real space distribution over                                 16 groups
 RS_GRID| Real space distribution along direction                              3
 RS_GRID| Border size                                                         28
 RS_GRID|   Distribution                         Average         Max         Min
 RS_GRID|   Planes                                  69.5          70          69
 RS_GRID|   Distribution                         Average         Max         Min
 RS_GRID|   Planes                                  74.8          75          74

 RS_GRID| Information for grid number                                          2
 RS_GRID|   Bounds   1            -30      29                Points:          60
 RS_GRID|   Bounds   2            -30      29                Points:          60
 RS_GRID|   Bounds   3            -90      89                Points:         180
 RS_GRID| Real space fully replicated
 RS_GRID| Group size                                                           1

 RS_GRID| Information for grid number                                          3
 RS_GRID|   Bounds   1            -18      17                Points:          36
 RS_GRID|   Bounds   2            -18      17                Points:          36
 RS_GRID|   Bounds   3            -50      49                Points:         100
 RS_GRID| Real space fully replicated
 RS_GRID| Group size                                                           1

 RS_GRID| Information for grid number                                          4
 RS_GRID|   Bounds   1            -10       9                Points:          20
 RS_GRID|   Bounds   2            -10       9                Points:          20
 RS_GRID|   Bounds   3            -30      29                Points:          60
 RS_GRID| Real space fully replicated
 RS_GRID| Group size                                                           1

 RS_GRID| Information for grid number                                          5
 RS_GRID|   Bounds   1             -6       5                Points:          12
 RS_GRID|   Bounds   2             -6       5                Points:          12
 RS_GRID|   Bounds   3            -18      17                Points:          36
 RS_GRID| Real space fully replicated
 RS_GRID| Group size                                                           1

 Spin 1

 Number of electrons:                                                        298.800
 Number of occupied orbitals:                                                299
 Number of molecular orbitals:                                               832

 Spin 2

 Number of electrons:                                                        277.200
 Number of occupied orbitals:                                                278
 Number of molecular orbitals:                                               832

 Number of orbital functions:                                                832
 Number of independent orbital functions:                                    832

 Extrapolation method: initial_guess

 Atomic guess: The first density matrix is obtained in terms of atomic orbitals
               and electronic configurations assigned to each atomic kind

 Guess for atomic kind: Ni_i

 Electronic structure
    Total number of core electrons                                         10.00
    Total number of valence electrons                                      18.00
    Total number of electrons                                              28.00
    Multiplicity                                                         doublet
    Alpha Electrons
    S   [  1.00  1.00] 1.00  1.00
    P   [  3.00] 3.00
    D      4.30
    Beta Electrons
    S   [  1.00  1.00] 1.00  1.00
    P   [  3.00] 3.00
    D      3.70


 *******************************************************************************
                  Iteration          Convergence                     Energy [au]
 *******************************************************************************
                          1         1.51708                    -167.066118163909
                          2         15.1863                    -156.630620063797
                          3         2.29518                    -168.318250074867
                          4        0.198051                    -168.608832938310
                          5        0.762142E-01                -168.611735578094
                          6        0.143308E-01                -168.612261389358
                          7        0.453828E-02                -168.612313512258
                          8        0.436836E-02                -168.612313369107
                          9        0.696306E-03                -168.612315351147
                         10        0.226261E-02                -168.612315025774
                         11        0.995757E-03                -168.612315268998
                         12        0.170432E-03                -168.612315393602
                         13        0.195344E-03                -168.612315392852
                         14        0.147467E-03                -168.612315396817
                         15        0.185080E-03                -168.612315392680
                         16        0.969041E-04                -168.612315398729
                         17        0.991109E-04                -168.612315398505
                         18        0.433236E-04                -168.612315399326
                         19        0.269198E-04                -168.612315399408
                         20        0.109432E-04                -168.612315399455
                         21        0.443439E-05                -168.612315399480
                         22        0.816741E-05                -168.612315399471
                         23        0.470984E-05                -168.612315399481
                         24        0.245833E-05                -168.612315399483
                         25        0.100766E-05                -168.612315399484
                         26        0.417991E-06                -168.612315399483

 Energy components [Hartree]           Total Energy ::         -168.612315399483
                                        Band Energy ::          -26.569179124340
                                     Kinetic Energy ::           97.305065650248
                                   Potential Energy ::         -265.917381049731
                                      Virial (-V/T) ::            2.732821557364
                                        Core Energy ::         -299.567011526383
                                          XC Energy ::          -16.225783039068
                                     Coulomb Energy ::          147.180479165968
                       Total Pseudopotential Energy ::         -396.958417944166
                       Local Pseudopotential Energy ::         -362.646534962999
                    Nonlocal Pseudopotential Energy ::          -34.311882981167
                                        Confinement ::            0.863407675347

 Orbital energies  State     Spin  L     Occupation   Energy[a.u.]    Energy[eV]

                       1    alpha  0          1.000      -4.170511   -113.485387
                       2    alpha  0          1.000      -0.181081     -4.927469
                       1     beta  0          1.000      -4.143060   -112.738394
                       2     beta  0          1.000      -0.176746     -4.809500

                       1    alpha  1          3.000      -2.576642    -70.114003
                       1     beta  1          3.000      -2.549934    -69.387228

                       1    alpha  2          4.300      -0.325251     -8.850518
                       1     beta  2          3.700      -0.302561     -8.233099


 Total Electron Density at R=0:                                         0.030426

 Guess for atomic kind: Ni_b

 Electronic structure
    Total number of core electrons                                         10.00
    Total number of valence electrons                                      18.00
    Total number of electrons                                              28.00
    Multiplicity                                                         doublet
    Alpha Electrons
    S   [  1.00  1.00] 1.00  1.00
    P   [  3.00] 3.00
    D      4.38
    Beta Electrons
    S   [  1.00  1.00] 1.00  1.00
    P   [  3.00] 3.00
    D      3.62


 *******************************************************************************
                  Iteration          Convergence                     Energy [au]
 *******************************************************************************
                          1         1.51739                    -167.068153276952
                          2         15.4920                    -156.649362433064
                          3         2.35381                    -168.319969801036
                          4        0.211005                    -168.610503058951
                          5        0.839626E-01                -168.613507594230
                          6        0.188677E-01                -168.614144114300
                          7        0.200536E-02                -168.614229358281
                          8        0.229440E-02                -168.614229242199
                          9        0.703541E-04                -168.614229802920
                         10        0.129980E-02                -168.614229687725
                         11        0.608373E-03                -168.614229778028
                         12        0.137097E-03                -168.614229799548
                         13        0.123889E-03                -168.614229801454
                         14        0.107288E-03                -168.614229802690
                         15        0.111556E-03                -168.614229802567
                         16        0.100219E-03                -168.614229802793
                         17        0.464657E-04                -168.614229803809
                         18        0.385916E-04                -168.614229803847
                         19        0.752867E-04                -168.614229803621
                         20        0.596803E-04                -168.614229803750
                         21        0.509969E-04                -168.614229803814
                         22        0.174655E-04                -168.614229803982
                         23        0.196403E-04                -168.614229803995
                         24        0.194239E-04                -168.614229803999
                         25        0.212890E-04                -168.614229803994
                         26        0.120822E-04                -168.614229804033
                         27        0.396577E-05                -168.614229804039
                         28        0.349092E-05                -168.614229804040
                         29        0.197452E-05                -168.614229804041
                         30        0.224721E-05                -168.614229804042
                         31        0.199956E-05                -168.614229804042
                         32        0.768126E-06                -168.614229804042

 Energy components [Hartree]           Total Energy ::         -168.614229804042
                                        Band Energy ::          -26.570094035547
                                     Kinetic Energy ::           97.307657804977
                                   Potential Energy ::         -265.921887609019
                                      Virial (-V/T) ::            2.732795070887
                                        Core Energy ::         -299.568528774602
                                          XC Energy ::          -16.227974193118
                                     Coulomb Energy ::          147.182273163677
                       Total Pseudopotential Energy ::         -396.962527617964
                       Local Pseudopotential Energy ::         -362.649286194602
                    Nonlocal Pseudopotential Energy ::          -34.313241423362
                                        Confinement ::            0.863410383853

 Orbital energies  State     Spin  L     Occupation   Energy[a.u.]    Energy[eV]

                       1    alpha  0          1.000      -4.173737   -113.573158
                       2    alpha  0          1.000      -0.181605     -4.941724
                       1     beta  0          1.000      -4.139423   -112.639418
                       2     beta  0          1.000      -0.176185     -4.794242

                       1    alpha  1          3.000      -2.579781    -70.199408
                       1     beta  1          3.000      -2.546395    -69.290937

                       1    alpha  2          4.375      -0.327928     -8.923379
                       1     beta  2          3.625      -0.299567     -8.151632


 Total Electron Density at R=0:                                         0.030420

 Spin 1
 Re-scaling the density matrix to get the right number of electrons for spin 1
                  # Electrons              Trace(P)               Scaling factor
                        298.800             298.800                        1.000

 Spin 2
 Re-scaling the density matrix to get the right number of electrons for spin 2
                  # Electrons              Trace(P)               Scaling factor
                        277.200             277.200                        1.000


 SCF WAVEFUNCTION OPTIMIZATION

  Step     Update method      Time    Convergence         Total energy    Change
  ------------------------------------------------------------------------------
     1 NoMix/Diag. 0.80E-01    1.4     0.87334396     -5426.4718692889 -5.43E+03
     2 Broy./Diag. 0.80E-01    1.5     0.01639813     -5317.0395202749  1.09E+02
     3 Broy./Diag. 0.80E-01    1.5     0.04833272     -5351.7036168948 -3.47E+01
     4 Broy./Diag. 0.80E-01    1.5     0.00671179     -5411.7991260893 -6.01E+01
     5 Broy./Diag. 0.80E-01    1.5     0.01239200     -5415.7186601239 -3.92E+00
     6 Broy./Diag. 0.80E-01    1.5     0.01047980     -5416.4499251130 -7.31E-01
     7 Broy./Diag. 0.80E-01    1.5     0.00221457     -5417.0062404836 -5.56E-01
     8 Broy./Diag. 0.80E-01    1.5     0.00810143     -5416.7538668312  2.52E-01
     9 Broy./Diag. 0.80E-01    1.5     0.00104353     -5417.3483783064 -5.95E-01
[...]
   122 Broy./Diag. 0.80E-01    1.5     0.00087353     -5417.8283364314 -9.39E-02
   123 Broy./Diag. 0.80E-01    1.5     0.00203740     -5417.8189986599  9.34E-03
   124 Broy./Diag. 0.80E-01    1.5     0.00593447     -5417.7919279600  2.71E-02
   125 Broy./Diag. 0.80E-01    1.5     0.02185950     -5417.8187119167 -2.68E-02
   126 Broy./Diag. 0.80E-01    1.5     0.00192204     -5417.7265398318  9.22E-02
   127 Broy./Diag. 0.80E-01    1.5     0.00064513     -5417.7362325821 -9.69E-03
   128 Broy./Diag. 0.80E-01    1.5     0.00694647     -5417.8214689483 -8.52E-02
   129 Broy./Diag. 0.80E-01    1.5     0.00244617     -5417.7256542999  9.58E-02
   130 Broy./Diag. 0.80E-01    1.5     0.00076853     -5417.8632416157 -1.38E-01
   131 Broy./Diag. 0.80E-01    1.5     0.00188855     -5417.8689945890 -5.75E-03
   132 Broy./Diag. 0.80E-01    1.5     0.00692596     -5417.8612229764  7.77E-03
   133 Broy./Diag. 0.80E-01    1.5     0.00339479     -5417.7244680147  1.37E-01
   134 Broy./Diag. 0.80E-01    1.5     0.00296153     -5417.8140201094 -8.96E-02
   135 Broy./Diag. 0.80E-01    1.5     0.00233032     -5417.7763660081  3.77E-02
   136 Broy./Diag. 0.80E-01    1.5     0.00405446     -5417.7354212522  4.09E-02
   137 Broy./Diag. 0.80E-01    1.5     0.00543936     -5417.7475169021 -1.21E-02
   138 Broy./Diag. 0.80E-01    1.5     0.02119029     -5417.7478723878 -3.55E-04
   139 Broy./Diag. 0.80E-01    1.5     0.01155457     -5417.9242556515 -1.76E-01
   140 Broy./Diag. 0.80E-01    1.5     0.01077523     -5417.8568822858  6.74E-02
   141 Broy./Diag. 0.80E-01    1.5     0.00765927     -5417.8669704466 -1.01E-02
   142 Broy./Diag. 0.80E-01    1.5     0.01126962     -5417.8891453977 -2.22E-02
   143 Broy./Diag. 0.80E-01    1.5     0.02607928     -5417.8272938798  6.19E-02
   144 Broy./Diag. 0.80E-01    1.5     0.04142833     -5417.8884081953 -6.11E-02
   145 Broy./Diag. 0.80E-01    1.5     0.00824931     -5417.7199144982  1.68E-01
   146 Broy./Diag. 0.80E-01    1.5     0.00578790     -5417.7365002953 -1.66E-02
   147 Broy./Diag. 0.80E-01    1.5     0.00305357     -5417.6260180409  1.10E-01
   148 Broy./Diag. 0.80E-01    1.5     0.02282095     -5417.6806357257 -5.46E-02
   149 Broy./Diag. 0.80E-01    1.5     0.00375655     -5417.4981318264  1.83E-01
   150 Broy./Diag. 0.80E-01    1.5     0.00085352     -5417.5148254525 -1.67E-02
   151 Broy./Diag. 0.80E-01    1.5     0.00787948     -5417.5421247913 -2.73E-02
   152 Broy./Diag. 0.80E-01    1.5     0.00688517     -5417.5281046167  1.40E-02
   153 Broy./Diag. 0.80E-01    1.5     0.01182361     -5417.4625803664  6.55E-02
   154 Broy./Diag. 0.80E-01    1.5     0.00349842     -5417.7295922832 -2.67E-01
   155 Broy./Diag. 0.80E-01    1.5     0.00083956     -5417.5816240181  1.48E-01
   156 Broy./Diag. 0.80E-01    1.5     0.00400111     -5417.5346933470  4.69E-02
   157 Broy./Diag. 0.80E-01    1.5     0.00103060     -5417.2511128256  2.84E-01
   158 Broy./Diag. 0.80E-01    1.5     0.00413083     -5417.2188182990  3.23E-02
   159 Broy./Diag. 0.80E-01    1.5     0.00195361     -5417.3113816116 -9.26E-02
   160 Broy./Diag. 0.80E-01    1.5     0.00250574     -5417.4160914399 -1.05E-01
   161 Broy./Diag. 0.80E-01    1.5     0.00638979     -5417.4112514513  4.84E-03
   162 Broy./Diag. 0.80E-01    1.5     0.00306038     -5417.2487833021  1.62E-01
   163 Broy./Diag. 0.80E-01    1.5     0.00424439     -5417.2196425155  2.91E-02
   164 Broy./Diag. 0.80E-01    1.5     0.01273378     -5417.3344526534 -1.15E-01
   165 Broy./Diag. 0.80E-01    1.5     0.00134759     -5417.5118737618 -1.77E-01
   166 Broy./Diag. 0.80E-01    1.5     0.00166763     -5417.5814159024 -6.95E-02
   167 Broy./Diag. 0.80E-01    1.5     0.00202464     -5417.6448289159 -6.34E-02
   168 Broy./Diag. 0.80E-01    1.5     0.00433598     -5417.6927162948 -4.79E-02
   169 Broy./Diag. 0.80E-01    1.5     0.00124801     -5417.6599107444  3.28E-02
   170 Broy./Diag. 0.80E-01    1.5     0.00065463     -5417.6577202630  2.19E-03
   171 Broy./Diag. 0.80E-01    1.5     0.00345951     -5417.6654299879 -7.71E-03
   172 Broy./Diag. 0.80E-01    1.5     0.00128971     -5417.6448845128  2.05E-02
   173 Broy./Diag. 0.80E-01    1.5     0.00811480     -5417.4451797672  2.00E-01
   174 Broy./Diag. 0.80E-01    1.5     0.00118507     -5417.5147068459 -6.95E-02
   175 Broy./Diag. 0.80E-01    1.5     0.00055085     -5417.5532150587 -3.85E-02
   176 Broy./Diag. 0.80E-01    1.5     0.00078805     -5417.5794149316 -2.62E-02
   177 Broy./Diag. 0.80E-01    1.5     0.00290887     -5417.6137176069 -3.43E-02
   178 Broy./Diag. 0.80E-01    1.5     0.00232128     -5417.6805435907 -6.68E-02
   179 Broy./Diag. 0.80E-01    1.5     0.00081486     -5417.7339432969 -5.34E-02
   180 Broy./Diag. 0.80E-01    1.5     0.00180775     -5417.6730180699  6.09E-02
   181 Broy./Diag. 0.80E-01    1.5     0.00485129     -5417.6638535750  9.16E-03
   182 Broy./Diag. 0.80E-01    1.5     0.00161526     -5417.5625952770  1.01E-01
   183 Broy./Diag. 0.80E-01    1.5     0.00585813     -5417.6209458190 -5.84E-02
   184 Broy./Diag. 0.80E-01    1.5     0.00218235     -5417.6343143943 -1.34E-02
   185 Broy./Diag. 0.80E-01    1.5     0.00270805     -5417.6223649454  1.19E-02
   186 Broy./Diag. 0.80E-01    1.5     0.00150686     -5417.6498781578 -2.75E-02
   187 Broy./Diag. 0.80E-01    1.5     0.00076523     -5417.6445310170  5.35E-03
   188 Broy./Diag. 0.80E-01    1.5     0.00329386     -5417.6172146216  2.73E-02
   189 Broy./Diag. 0.80E-01    1.5     0.00160433     -5417.6058367340  1.14E-02
   190 Broy./Diag. 0.80E-01    1.5     0.00285271     -5417.5842454087  2.16E-02
   191 Broy./Diag. 0.80E-01    1.5     0.01026870     -5417.5747515029  9.49E-03
   192 Broy./Diag. 0.80E-01    1.5     0.01910982     -5417.5539411677  2.08E-02
   193 Broy./Diag. 0.80E-01    1.5     0.00382368     -5417.6192147502 -6.53E-02
   194 Broy./Diag. 0.80E-01    1.5     0.00549330     -5417.7538378299 -1.35E-01
   195 Broy./Diag. 0.80E-01    1.5     0.00555681     -5417.7283790055  2.55E-02
   196 Broy./Diag. 0.80E-01    1.5     0.00258616     -5417.7836051757 -5.52E-02
   197 Broy./Diag. 0.80E-01    1.5     0.00172062     -5417.7537105630  2.99E-02
   198 Broy./Diag. 0.80E-01    1.5     0.00493751     -5417.7605125021 -6.80E-03
   199 Broy./Diag. 0.80E-01    1.5     0.00255708     -5417.6609953517  9.95E-02
   200 Broy./Diag. 0.80E-01    1.5     0.01426516     -5417.4981141705  1.63E-01
   201 Broy./Diag. 0.80E-01    1.5     0.00036949     -5417.5808027483 -8.27E-02
   202 Broy./Diag. 0.80E-01    1.5     0.01850486     -5417.5716434849  9.16E-03
   203 Broy./Diag. 0.80E-01    1.5     0.00159608     -5417.2871105797  2.85E-01
   204 Broy./Diag. 0.80E-01    1.5     0.00583667     -5417.3173541793 -3.02E-02
   205 Broy./Diag. 0.80E-01    1.5     0.00246408     -5417.0772212104  2.40E-01
   206 Broy./Diag. 0.80E-01    1.5     0.00470381     -5417.1153473214 -3.81E-02
   207 Broy./Diag. 0.80E-01    1.5     0.00386051     -5417.2016470011 -8.63E-02
   208 Broy./Diag. 0.80E-01    1.5     0.01459220     -5417.1230591160  7.86E-02
   209 Broy./Diag. 0.80E-01    1.5     0.00986691     -5417.3056115312 -1.83E-01
   210 Broy./Diag. 0.80E-01    1.5     0.00295646     -5417.3866308153 -8.10E-02
   211 Broy./Diag. 0.80E-01    1.5     0.00737092     -5417.3526736413  3.40E-02
   212 Broy./Diag. 0.80E-01    1.5     0.00506819     -5417.2539587037  9.87E-02
   213 Broy./Diag. 0.80E-01    1.5     0.00466781     -5417.2555224715 -1.56E-03
   214 Broy./Diag. 0.80E-01    1.5     0.00435565     -5417.3922414108 -1.37E-01
   215 Broy./Diag. 0.80E-01    1.5     0.02400615     -5417.2427773960  1.49E-01
   216 Broy./Diag. 0.80E-01    1.5     0.03841191     -5417.6544549175 -4.12E-01
   217 Broy./Diag. 0.80E-01    1.5     0.01286737     -5417.2653237341  3.89E-01
   218 Broy./Diag. 0.80E-01    1.5     0.00301789     -5417.0367033415  2.29E-01
   219 Broy./Diag. 0.80E-01    1.5     0.00136481     -5416.9478625435  8.88E-02
   220 Broy./Diag. 0.80E-01    1.5     0.02990632     -5416.8954397447  5.24E-02
   221 Broy./Diag. 0.80E-01    1.5     0.00991163     -5417.3666721340 -4.71E-01
   222 Broy./Diag. 0.80E-01    1.5     0.00444896     -5417.4756930525 -1.09E-01
   223 Broy./Diag. 0.80E-01    1.5     0.00978467     -5417.4348130106  4.09E-02
   224 Broy./Diag. 0.80E-01    1.5     0.00704653     -5417.5008252508 -6.60E-02
   225 Broy./Diag. 0.80E-01    1.5     0.00124260     -5417.6061287719 -1.05E-01
   226 Broy./Diag. 0.80E-01    1.5     0.00172122     -5417.6102909254 -4.16E-03
   227 Broy./Diag. 0.80E-01    1.5     0.00219709     -5417.5905564674  1.97E-02
   228 Broy./Diag. 0.80E-01    1.5     0.00999780     -5417.5830201461  7.54E-03
   229 Broy./Diag. 0.80E-01    1.5     0.00196173     -5417.6034099983 -2.04E-02
   230 Broy./Diag. 0.80E-01    1.5     0.00269753     -5417.5597433799  4.37E-02
   231 Broy./Diag. 0.80E-01    1.5     0.00063850     -5417.5950945857 -3.54E-02
   232 Broy./Diag. 0.80E-01    1.5     0.00264072     -5417.5942842243  8.10E-04
   233 Broy./Diag. 0.80E-01    1.5     0.02129636     -5417.5423515281  5.19E-02
   234 Broy./Diag. 0.80E-01    1.5     0.02686887     -5417.6218002975 -7.94E-02
   235 Broy./Diag. 0.80E-01    1.5     0.00563995     -5417.5660613705  5.57E-02
   236 Broy./Diag. 0.80E-01    1.5     0.00962776     -5417.5172362177  4.88E-02
   237 Broy./Diag. 0.80E-01    1.5     0.00969123     -5417.3532529154  1.64E-01
   238 Broy./Diag. 0.80E-01    1.5     0.01331428     -5417.2042872196  1.49E-01
   239 Broy./Diag. 0.80E-01    1.5     0.00023131     -5417.0615116238  1.43E-01
   240 Broy./Diag. 0.80E-01    1.5     0.02022339     -5417.0698012635 -8.29E-03
   241 Broy./Diag. 0.80E-01    1.5     0.00094074     -5417.0596335584  1.02E-02
   242 Broy./Diag. 0.80E-01    1.5     0.01844826     -5417.0958929501 -3.63E-02
   243 Broy./Diag. 0.80E-01    1.5     0.00407867     -5417.3746834793 -2.79E-01
   244 Broy./Diag. 0.80E-01    1.5     0.00377136     -5417.4393055390 -6.46E-02
   245 Broy./Diag. 0.80E-01    1.5     0.00430000     -5417.2396204964  2.00E-01
   246 Broy./Diag. 0.80E-01    1.5     0.00381797     -5417.2216013025  1.80E-02
   247 Broy./Diag. 0.80E-01    1.5     0.00193668     -5417.2860385690 -6.44E-02
   248 Broy./Diag. 0.80E-01    1.5     0.00247966     -5417.3449725626 -5.89E-02
   249 Broy./Diag. 0.80E-01    1.5     0.00286917     -5417.4023518494 -5.74E-02
   250 Broy./Diag. 0.80E-01    1.5     0.01285125     -5417.3750457358  2.73E-02
   251 Broy./Diag. 0.80E-01    1.5     0.00521276     -5417.2513939870  1.24E-01
   252 Broy./Diag. 0.80E-01    1.5     0.00366087     -5417.2519034422 -5.09E-04
   253 Broy./Diag. 0.80E-01    1.5     0.00374372     -5417.2912360163 -3.93E-02
   254 Broy./Diag. 0.80E-01    1.5     0.00459617     -5417.4597169531 -1.68E-01
   255 Broy./Diag. 0.80E-01    1.5     0.00309714     -5417.3262216545  1.33E-01
   256 Broy./Diag. 0.80E-01    1.5     0.00730960     -5417.3182744701  7.95E-03
   257 Broy./Diag. 0.80E-01    1.5     0.00241970     -5417.3744388743 -5.62E-02
   258 Broy./Diag. 0.80E-01    1.5     0.00322943     -5417.4124076165 -3.80E-02
   259 Broy./Diag. 0.80E-01    1.5     0.00100066     -5417.3785349947  3.39E-02
   260 Broy./Diag. 0.80E-01    1.5     0.00864832     -5417.3282662046  5.03E-02
   261 Broy./Diag. 0.80E-01    1.5     0.00087144     -5417.4376304323 -1.09E-01
   262 Broy./Diag. 0.80E-01    1.5     0.00205664     -5417.4440740852 -6.44E-03
   263 Broy./Diag. 0.80E-01    1.5     0.00679970     -5417.4574538867 -1.34E-02
   264 Broy./Diag. 0.80E-01    1.5     0.00303501     -5417.6472191027 -1.90E-01
   265 Broy./Diag. 0.80E-01    1.5     0.00864270     -5417.4375539460  2.10E-01
   266 Broy./Diag. 0.80E-01    1.5     0.00196449     -5417.2825687163  1.55E-01
   267 Broy./Diag. 0.80E-01    1.5     0.00293077     -5417.3119183250 -2.93E-02
   268 Broy./Diag. 0.80E-01    1.5     0.00190782     -5417.0800284842  2.32E-01
   269 Broy./Diag. 0.80E-01    1.5     0.01395480     -5417.1262565684 -4.62E-02
   270 Broy./Diag. 0.80E-01    1.5     0.00861887     -5417.8746205318 -7.48E-01
   271 Broy./Diag. 0.80E-01    1.5     0.00944413     -5417.9758317668 -1.01E-01
   272 Broy./Diag. 0.80E-01    1.5     0.00252013     -5417.9708237539  5.01E-03
   273 Broy./Diag. 0.80E-01    1.5     0.00104486     -5417.9216634319  4.92E-02
   274 Broy./Diag. 0.80E-01    1.5     0.00792920     -5417.9040392235  1.76E-02
   275 Broy./Diag. 0.80E-01    1.5     0.00217108     -5417.7218814107  1.82E-01
   276 Broy./Diag. 0.80E-01    1.5     0.00478714     -5417.7903626585 -6.85E-02
   277 Broy./Diag. 0.80E-01    1.5     0.00561532     -5417.8746665173 -8.43E-02
   278 Broy./Diag. 0.80E-01    1.5     0.00923723     -5417.8794833353 -4.82E-03
   279 Broy./Diag. 0.80E-01    1.5     0.01836056     -5417.9512466196 -7.18E-02
   280 Broy./Diag. 0.80E-01    1.5     0.00591197     -5418.0913479392 -1.40E-01
   281 Broy./Diag. 0.80E-01    1.5     0.01660898     -5418.1293952246 -3.80E-02
   282 Broy./Diag. 0.80E-01    1.5     0.01637670     -5418.0245316393  1.05E-01
   283 Broy./Diag. 0.80E-01    1.5     0.04480120     -5418.0865259388 -6.20E-02
   284 Broy./Diag. 0.80E-01    1.5     0.05019995     -5418.2132931786 -1.27E-01
   285 Broy./Diag. 0.80E-01    1.5     0.04083403     -5418.1766696169  3.66E-02
   286 Broy./Diag. 0.80E-01    1.5     0.01936091     -5418.1128541282  6.38E-02
   287 Broy./Diag. 0.80E-01    1.5     0.00480328     -5418.1754075816 -6.26E-02
   288 Broy./Diag. 0.80E-01    1.5     0.00886752     -5418.2952300357 -1.20E-01
   289 Broy./Diag. 0.80E-01    1.5     0.00753769     -5418.3049207920 -9.69E-03
   290 Broy./Diag. 0.80E-01    1.5     0.01735841     -5418.1336307106  1.71E-01
   291 Broy./Diag. 0.80E-01    1.5     0.01209026     -5418.0518697323  8.18E-02
   292 Broy./Diag. 0.80E-01    1.5     0.00908083     -5417.9611682515  9.07E-02
   293 Broy./Diag. 0.80E-01    1.5     0.01433555     -5418.0957872491 -1.35E-01
   294 Broy./Diag. 0.80E-01    1.5     0.02106366     -5418.2391077932 -1.43E-01
   295 Broy./Diag. 0.80E-01    1.5     0.01087152     -5418.3797078435 -1.41E-01
   296 Broy./Diag. 0.80E-01    1.5     0.00174432     -5418.3795555532  1.52E-04
   297 Broy./Diag. 0.80E-01    1.5     0.01818955     -5418.4126764682 -3.31E-02
   298 Broy./Diag. 0.80E-01    1.5     0.00532919     -5418.3230570922  8.96E-02
   299 Broy./Diag. 0.80E-01    1.5     0.00327396     -5418.3508747783 -2.78E-02
   300 Broy./Diag. 0.80E-01    1.5     0.00423907     -5418.1668410278  1.84E-01
   301 Broy./Diag. 0.80E-01    1.5     0.00479782     -5417.9401319219  2.27E-01
   302 Broy./Diag. 0.80E-01    1.5     0.01154577     -5417.9405206659 -3.89E-04
   303 Broy./Diag. 0.80E-01    1.5     0.03491701     -5417.9352832626  5.24E-03
   304 Broy./Diag. 0.80E-01    1.5     0.00305241     -5417.8107839296  1.24E-01
   305 Broy./Diag. 0.80E-01    1.5     0.03169124     -5417.9101735738 -9.94E-02
   306 Broy./Diag. 0.80E-01    1.5     0.02206338     -5417.8683133066  4.19E-02
   307 Broy./Diag. 0.80E-01    1.5     0.04196260     -5417.8320478765  3.63E-02
   308 Broy./Diag. 0.80E-01    1.5     0.00374517     -5418.0512793774 -2.19E-01
   309 Broy./Diag. 0.80E-01    1.5     0.00928819     -5418.0162093771  3.51E-02
   310 Broy./Diag. 0.80E-01    1.5     0.00335984     -5417.8177651363  1.98E-01
   311 Broy./Diag. 0.80E-01    1.5     0.00673120     -5417.7737051459  4.41E-02
   312 Broy./Diag. 0.80E-01    1.5     0.01883768     -5417.7360397941  3.77E-02
   313 Broy./Diag. 0.80E-01    1.5     0.00568563     -5417.7065742367  2.95E-02
   314 Broy./Diag. 0.80E-01    1.5     0.00382034     -5417.7542889903 -4.77E-02
   315 Broy./Diag. 0.80E-01    1.5     0.00369234     -5417.8640686121 -1.10E-01
   316 Broy./Diag. 0.80E-01    1.5     0.01110601     -5417.8653826223 -1.31E-03
   317 Broy./Diag. 0.80E-01    1.5     0.01257235     -5417.9287144427 -6.33E-02
   318 Broy./Diag. 0.80E-01    1.5     0.00078015     -5417.9243206059  4.39E-03
   319 Broy./Diag. 0.80E-01    1.5     0.00232113     -5417.9108642060  1.35E-02
   320 Broy./Diag. 0.80E-01    1.5     0.01360098     -5417.9138378868 -2.97E-03
   321 Broy./Diag. 0.80E-01    1.5     0.01666045     -5417.8536457855  6.02E-02
   322 Broy./Diag. 0.80E-01    1.5     0.01083103     -5417.9020575333 -4.84E-02
   323 Broy./Diag. 0.80E-01    1.5     0.01700381     -5417.7837876614  1.18E-01
   324 Broy./Diag. 0.80E-01    1.5     0.01026971     -5417.8151905255 -3.14E-02
   325 Broy./Diag. 0.80E-01    1.5     0.00521837     -5417.8770965470 -6.19E-02
   326 Broy./Diag. 0.80E-01    1.5     0.00683050     -5417.9089173678 -3.18E-02
   327 Broy./Diag. 0.80E-01    1.5     0.00223374     -5417.8709650447  3.80E-02
   328 Broy./Diag. 0.80E-01    1.5     0.00602273     -5417.8682470778  2.72E-03
   329 Broy./Diag. 0.80E-01    1.5     0.01752278     -5417.7421663578  1.26E-01
   330 Broy./Diag. 0.80E-01    1.5     0.01456918     -5417.8641877583 -1.22E-01
   331 Broy./Diag. 0.80E-01    1.5     0.01009268     -5417.7568019227  1.07E-01
   332 Broy./Diag. 0.80E-01    1.5     0.02157864     -5417.7560359060  7.66E-04
   333 Broy./Diag. 0.80E-01    1.5     0.00776789     -5417.7820836236 -2.60E-02
   334 Broy./Diag. 0.80E-01    1.5     0.01079503     -5417.9290735534 -1.47E-01
   335 Broy./Diag. 0.80E-01    1.5     0.00796085     -5415.7927314491  2.14E+00
   336 Broy./Diag. 0.80E-01    1.5     0.01375009     -5416.4984476927 -7.06E-01
   337 Broy./Diag. 0.80E-01    1.5     0.01005870     -5415.4897129634  1.01E+00
   338 Broy./Diag. 0.80E-01    1.5     0.01597551     -5416.6898111013 -1.20E+00
   339 Broy./Diag. 0.80E-01    1.5     0.00552672     -5415.9233654527  7.66E-01
   340 Broy./Diag. 0.80E-01    1.5     0.00373552     -5414.6163909436  1.31E+00
   341 Broy./Diag. 0.80E-01    1.5     0.01173830     -5415.3008842949 -6.84E-01
   342 Broy./Diag. 0.80E-01    1.5     0.01127210     -5417.2577482926 -1.96E+00
   343 Broy./Diag. 0.80E-01    1.5     0.01228203     -5417.2045324077  5.32E-02
   344 Broy./Diag. 0.80E-01    1.5     0.00376849     -5417.1310088293  7.35E-02
   345 Broy./Diag. 0.80E-01    1.5     0.00465921     -5417.4684001518 -3.37E-01
   346 Broy./Diag. 0.80E-01    1.5     0.00893142     -5417.6189394452 -1.51E-01
   347 Broy./Diag. 0.80E-01    1.5     0.01161014     -5416.8903185963  7.29E-01
   348 Broy./Diag. 0.80E-01    1.5     0.00614897     -5417.4667026751 -5.76E-01
   349 Broy./Diag. 0.80E-01    1.5     0.00348226     -5417.2299883624  2.37E-01
   350 Broy./Diag. 0.80E-01    1.5     0.00979891     -5417.4159460423 -1.86E-01
   351 Broy./Diag. 0.80E-01    1.5     0.01032432     -5417.4649362800 -4.90E-02
   352 Broy./Diag. 0.80E-01    1.5     0.00981786     -5416.9836438383  4.81E-01
   353 Broy./Diag. 0.80E-01    1.5     0.00700198     -5416.8355447151  1.48E-01
   354 Broy./Diag. 0.80E-01    1.5     0.00407318     -5417.1538794646 -3.18E-01
   355 Broy./Diag. 0.80E-01    1.5     0.01565272     -5417.2839207429 -1.30E-01
   356 Broy./Diag. 0.80E-01    1.5     0.03511268     -5415.7518750241  1.53E+00
   357 Broy./Diag. 0.80E-01    1.5     0.04255083     -5417.4897144709 -1.74E+00
   358 Broy./Diag. 0.80E-01    1.5     0.02568824     -5411.7881255593  5.70E+00
   359 Broy./Diag. 0.80E-01    1.5     0.03713020     -5413.4506939385 -1.66E+00
   360 Broy./Diag. 0.80E-01    1.5     0.01429165     -5411.8626692052  1.59E+00
   361 Broy./Diag. 0.80E-01    1.5     0.02731435     -5410.9000890211  9.63E-01
   362 Broy./Diag. 0.80E-01    1.5     0.07283960     -5410.4537690151  4.46E-01
   363 Broy./Diag. 0.80E-01    1.5     0.05037206     -5418.3209860182 -7.87E+00
   364 Broy./Diag. 0.80E-01    1.5     0.09957993     -5417.9526754599  3.68E-01
   365 Broy./Diag. 0.80E-01    1.5     0.03028977     -5413.5758163920  4.38E+00
   366 Broy./Diag. 0.80E-01    1.5     0.04252633     -5416.2776170923 -2.70E+00
   367 Broy./Diag. 0.80E-01    1.5     0.07871730     -5412.7135518431  3.56E+00
