 DBCSR| CPU Multiplication driver                                           XSMM (U)
 DBCSR| Multrec recursion limit                                              512 (U)
 DBCSR| Multiplication stack size                                           1000 (D)
 DBCSR| Maximum elements for images                                    UNLIMITED (U)
 DBCSR| Multiplicative factor virtual images                                   1 (U)
 DBCSR| Use multiplication densification                                       T (D)
 DBCSR| Multiplication size stacks                                             3 (U)
 DBCSR| Use memory pool for CPU allocation                                     F (U)
 DBCSR| Number of 3D layers                                               SINGLE (U)
 DBCSR| Use MPI memory allocation                                              F (U)
 DBCSR| Use RMA algorithm                                                      F (U)
 DBCSR| Use Communication thread                                               T (U)
 DBCSR| Communication thread load                                             87 (D)
 DBCSR| MPI: My process id                                                     0
 DBCSR| MPI: Number of processes                                             128
 DBCSR| OMP: Current number of threads                                         1
 DBCSR| OMP: Max number of threads                                             1
 DBCSR| Split modifier for TAS multiplication algorithm                  1.0E+00 (U)


  **** **** ******  **  PROGRAM STARTED AT               2023-02-15 17:11:32.774
 ***** ** ***  *** **   PROGRAM STARTED ON                             nid004129
 **    ****   ******    PROGRAM STARTED BY                                cahart
 ***** **    ** ** **   PROGRAM PROCESS ID                                130052
  **** **  *******  **  PROGRAM STARTED IN /mnt/lustre/a2fs-work2/work/e05/e05/c
                                           ahart/postdoc/masters/ni/archer2/slab
                                           /optimise/magnetisation/scf_1e-4_temp
                                           -2000_mos-1000_alpha-0.08_beta-1.5_pe
                                           riodic-xyz/search/0.80_0.8

 CP2K| version string:                 CP2K version 2023.1 (Development Version)
 CP2K| source code revision number:                                  git:964cd58
 CP2K| cp2kflags: omp libint fftw3 libxc elpa parallel scalapack xsmm plumed2 mk
 CP2K|            l
 CP2K| is freely available from                            https://www.cp2k.org/
 CP2K| Program compiled at                          Mon 13 Feb 17:05:14 GMT 2023
 CP2K| Program compiled on                                                  ln01
 CP2K| Program compiled for                                              ARCHER2
 CP2K| Data directory path    /work/e05/e05/cahart/cp2k/cp2k-2023.1/cp2k-2023.1-
 CP2K| Input file name                                                  cp2k.inp

 GLOBAL| Force Environment number                                              1
 GLOBAL| Basis set file name                                        BASIS_MOLOPT
 GLOBAL| Potential file name                                      GTH_POTENTIALS
 GLOBAL| MM Potential file name                                     MM_POTENTIAL
 GLOBAL| Coordinate file name                                      __STD_INPUT__
 GLOBAL| Method name                                                        CP2K
 GLOBAL| Project name                                                    Ni_bulk
 GLOBAL| Run type                                                         ENERGY
 GLOBAL| FFT library                                                       FFTW3
 GLOBAL| Diagonalization library                                            ELPA
 GLOBAL| DGEMM library                                                      BLAS
 GLOBAL| Minimum number of eigenvectors for ELPA usage                        16
 GLOBAL| Orthonormality check for eigenvectors                          DISABLED
 GLOBAL| Matrix multiplication library                                 ScaLAPACK
 GLOBAL| All-to-all communication in single precision                          F
 GLOBAL| FFTs using library dependent lengths                                  F
 GLOBAL| Grid backend                                                       AUTO
 GLOBAL| Global print level                                               MEDIUM
 GLOBAL| MPI I/O enabled                                                       T
 GLOBAL| Total number of message passing processes                           128
 GLOBAL| Number of threads for this process                                    1
 GLOBAL| This output is from process                                           0
 GLOBAL| Stack size for threads created by OpenMP (OMP_STACKSIZE)        default
 GLOBAL| CPU model name                          AMD EPYC 7742 64-Core Processor
 GLOBAL| CPUID                                                              1002

 MEMORY| system memory details [Kb]
 MEMORY|                        rank 0           min           max       average
 MEMORY| MemTotal            263528088     263528088     263528088     263528088
 MEMORY| MemFree             239218552     239218552     239218552     239218552
 MEMORY| Buffers                 28640         28640         28640         28640
 MEMORY| Cached                 606480        606480        606480        606480
 MEMORY| Slab                  1485768       1485768       1485768       1485768
 MEMORY| SReclaimable           118704        118704        118704        118704
 MEMORY| MemLikelyFree       239972376     239972376     239972376     239972376


 *** Fundamental physical constants (SI units) ***

 *** Literature: B. J. Mohr and B. N. Taylor,
 ***             CODATA recommended values of the fundamental physical
 ***             constants: 2006, Web Version 5.1
 ***             http://physics.nist.gov/constants

 Speed of light in vacuum [m/s]                             2.99792458000000E+08
 Magnetic constant or permeability of vacuum [N/A**2]       1.25663706143592E-06
 Electric constant or permittivity of vacuum [F/m]          8.85418781762039E-12
 Planck constant (h) [J*s]                                  6.62606896000000E-34
 Planck constant (h-bar) [J*s]                              1.05457162825177E-34
 Elementary charge [C]                                      1.60217648700000E-19
 Electron mass [kg]                                         9.10938215000000E-31
 Electron g factor [ ]                                     -2.00231930436220E+00
 Proton mass [kg]                                           1.67262163700000E-27
 Fine-structure constant                                    7.29735253760000E-03
 Rydberg constant [1/m]                                     1.09737315685270E+07
 Avogadro constant [1/mol]                                  6.02214179000000E+23
 Boltzmann constant [J/K]                                   1.38065040000000E-23
 Atomic mass unit [kg]                                      1.66053878200000E-27
 Bohr radius [m]                                            5.29177208590000E-11

 *** Conversion factors ***

 [u] -> [a.u.]                                              1.82288848426455E+03
 [Angstrom] -> [Bohr] = [a.u.]                              1.88972613288564E+00
 [a.u.] = [Bohr] -> [Angstrom]                              5.29177208590000E-01
 [a.u.] -> [s]                                              2.41888432650478E-17
 [a.u.] -> [fs]                                             2.41888432650478E-02
 [a.u.] -> [J]                                              4.35974393937059E-18
 [a.u.] -> [N]                                              8.23872205491840E-08
 [a.u.] -> [K]                                              3.15774647902944E+05
 [a.u.] -> [kJ/mol]                                         2.62549961709828E+03
 [a.u.] -> [kcal/mol]                                       6.27509468713739E+02
 [a.u.] -> [Pa]                                             2.94210107994716E+13
 [a.u.] -> [bar]                                            2.94210107994716E+08
 [a.u.] -> [atm]                                            2.90362800883016E+08
 [a.u.] -> [eV]                                             2.72113838565563E+01
 [a.u.] -> [Hz]                                             6.57968392072181E+15
 [a.u.] -> [1/cm] (wave numbers)                            2.19474631370540E+05
 [a.u./Bohr**2] -> [1/cm]                                   5.14048714338585E+03
 

 CELL_TOP| Volume [angstrom^3]:                                       983.249569
 CELL_TOP| Vector a [angstrom     7.012     0.000     0.000   |a| =     7.011596
 CELL_TOP| Vector b [angstrom     0.000     7.012     0.000   |b| =     7.011596
 CELL_TOP| Vector c [angstrom     0.000     0.000    20.000   |c| =    20.000000
 CELL_TOP| Angle (b,c), alpha [degree]:                                90.000000
 CELL_TOP| Angle (a,c), beta  [degree]:                                90.000000
 CELL_TOP| Angle (a,b), gamma [degree]:                                90.000000
 CELL_TOP| Numerically orthorhombic:                                         YES
 CELL_TOP| Periodicity                                                       XYZ

 GENERATE|  Preliminary Number of Bonds generated:                             0
 GENERATE|  Achieved consistency in connectivity generation.

 CELL| Volume [angstrom^3]:                                           983.249569
 CELL| Vector a [angstrom]:       7.012     0.000     0.000   |a| =     7.011596
 CELL| Vector b [angstrom]:       0.000     7.012     0.000   |b| =     7.011596
 CELL| Vector c [angstrom]:       0.000     0.000    20.000   |c| =    20.000000
 CELL| Angle (b,c), alpha [degree]:                                    90.000000
 CELL| Angle (a,c), beta  [degree]:                                    90.000000
 CELL| Angle (a,b), gamma [degree]:                                    90.000000
 CELL| Numerically orthorhombic:                                             YES
 CELL| Periodicity                                                           XYZ

 CELL_REF| Volume [angstrom^3]:                                       983.249569
 CELL_REF| Vector a [angstrom     7.012     0.000     0.000   |a| =     7.011596
 CELL_REF| Vector b [angstrom     0.000     7.012     0.000   |b| =     7.011596
 CELL_REF| Vector c [angstrom     0.000     0.000    20.000   |c| =    20.000000
 CELL_REF| Angle (b,c), alpha [degree]:                                90.000000
 CELL_REF| Angle (a,c), beta  [degree]:                                90.000000
 CELL_REF| Angle (a,b), gamma [degree]:                                90.000000
 CELL_REF| Numerically orthorhombic:                                         YES
 CELL_REF| Periodicity                                                       XYZ

 *** WARNING in cryssym.F:165 :: Symmetry library SPGLIB not available ***


 *******************************************************************************
                                    Kpoints
 *******************************************************************************
 BRILLOUIN| K-point scheme                                        Monkhorst-Pack
 BRILLOUIN| K-Point grid                                             4    4    1
 BRILLOUIN| Accuracy in Symmetry determination                      0.100000E-05
 BRILLOUIN| K-Point point group symmetrization                               OFF
 BRILLOUIN| Wavefunction type                                            COMPLEX
 BRILLOUIN| List of Kpoints [2 Pi/Bohr]                                        8
 BRILLOUIN| Number           Weight            X              Y              Z
 BRILLOUIN|     1           0.12500       -0.37500       -0.37500        0.00000
 BRILLOUIN|     2           0.12500       -0.37500       -0.12500        0.00000
 BRILLOUIN|     3           0.12500       -0.37500        0.12500        0.00000
 BRILLOUIN|     4           0.12500       -0.37500        0.37500        0.00000
 BRILLOUIN|     5           0.12500       -0.12500       -0.37500        0.00000
 BRILLOUIN|     6           0.12500       -0.12500       -0.12500        0.00000
 BRILLOUIN|     7           0.12500       -0.12500        0.12500        0.00000
 BRILLOUIN|     8           0.12500       -0.12500        0.37500        0.00000
 *******************************************************************************

 *******************************************************************************
 *******************************************************************************
 **                                                                           **
 **     #####                         ##              ##                      **
 **    ##   ##            ##          ##              ##                      **
 **   ##     ##                       ##            ######                    **
 **   ##     ##  ##   ##  ##   #####  ##  ##   ####   ##    #####    #####    **
 **   ##     ##  ##   ##  ##  ##      ## ##   ##      ##   ##   ##  ##   ##   **
 **   ##  ## ##  ##   ##  ##  ##      ####     ###    ##   ######   ######    **
 **    ##  ###   ##   ##  ##  ##      ## ##      ##   ##   ##       ##        **
 **     #######   #####   ##   #####  ##  ##  ####    ##    #####   ##        **
 **           ##                                                    ##        **
 **                                                                           **
 **                                                ... make the atoms dance   **
 **                                                                           **
 **            Copyright (C) by CP2K developers group (2000-2023)             **
 **                      J. Chem. Phys. 152, 194103 (2020)                    **
 **                                                                           **
 *******************************************************************************

 *** WARNING in qs_environment.F:1456 :: Number of electrons will be ***
 *** overwritten by NELEC_ALPHA and NELEC_BETA, multiplicity will be ***
 *** ignored.                                                        ***

 Number of electrons should be                                               576
 Sum of NELEC_ALPHA and NELEC_BETA is                                    576.000

 *** WARNING in qs_environment.F:1488 :: NELEC_ALPHA is not an integer, ***
 *** many features will not be supported.                               ***


 *** WARNING in qs_environment.F:1500 :: NELEC_BETA is not an integer, ***
 *** many features will not be supported.                              ***


 *** WARNING in qs_environment.F:1532 :: More ADDED_MOs requested for beta ***
 *** spin than available.                                                  ***


 *** WARNING in qs_environment.F:1548 :: More added MOs requested than     ***
 *** available. The full set of unoccupied MOs will be used. Use           ***
 *** 'ADDED_MOS -1' to always use all available MOs and to get rid of this ***
 *** warning.                                                              ***


 DFT| Spin unrestricted (spin-polarized) Kohn-Sham calculation               UKS
 DFT| Multiplicity                                                             1
 DFT| Number of spin states                                                    2
 DFT| Charge                                                                   0
 DFT| Self-interaction correction (SIC)                                       NO
 DFT| Cutoffs: density                                              1.000000E-10
 DFT|          gradient                                             1.000000E-10
 DFT|          tau                                                  1.000000E-10
 DFT|          cutoff_smoothing_range                               0.000000E+00
 DFT| XC density smoothing                                                  NONE
 DFT| XC derivatives                                                          PW

 FUNCTIONAL| PBE:
 FUNCTIONAL| J.P.Perdew, K.Burke, M.Ernzerhof, Phys. Rev. Letter, vol. 77, n 18,
 FUNCTIONAL|  pp. 3865-3868, (1996){spin polarized}                             

 vdW POTENTIAL|                                                   Pair Potential
 vdW POTENTIAL|          DFT-D3 (Version 3.1)
 vdW POTENTIAL|          Potential Form: S. Grimme et al, JCP 132: 154104 (2010)
 vdW POTENTIAL|          Zero Damping
 vdW POTENTIAL|          Cutoff Radius [Bohr]:                             20.00
 vdW POTENTIAL|          s6 Scaling Factor:                               1.0000
 vdW POTENTIAL|          sr6 Scaling Factor:                              1.2170
 vdW POTENTIAL|          s8 Scaling Factor:                               0.7220
 vdW POTENTIAL|          Cutoff for CN calculation:                   0.1000E-05

 QS| Method:                                                                 GPW
 QS| Density plane wave grid type                        NON-SPHERICAL FULLSPACE
 QS| Number of grid levels:                                                    5
 QS| Density cutoff [a.u.]:                                                300.0
 QS| Multi grid cutoff [a.u.]: 1) grid level                               300.0
 QS|                           2) grid level                               100.0
 QS|                           3) grid level                                33.3
 QS|                           4) grid level                                11.1
 QS|                           5) grid level                                 3.7
 QS| Grid level progression factor:                                          3.0
 QS| Relative density cutoff [a.u.]:                                        30.0
 QS| Interaction thresholds: eps_pgf_orb:                                1.0E-06
 QS|                         eps_filter_matrix:                          0.0E+00
 QS|                         eps_core_charge:                            1.0E-14
 QS|                         eps_rho_gspace:                             1.0E-12
 QS|                         eps_rho_rspace:                             1.0E-12
 QS|                         eps_gvg_rspace:                             1.0E-06
 QS|                         eps_ppl:                                    1.0E-02
 QS|                         eps_ppnl:                                   1.0E-08


 ATOMIC KIND INFORMATION

  1. Atomic kind: Ni_i                                  Number of atoms:      16

     Orbital Basis Set                                        DZVP-MOLOPT-SR-GTH

       Number of orbital shell sets:                                           1
       Number of orbital shells:                                               8
       Number of primitive Cartesian functions:                                6
       Number of Cartesian basis functions:                                   31
       Number of spherical basis functions:                                   26
       Norm type:                                                              2

       Normalised Cartesian orbitals:

                        Set   Shell   Orbital            Exponent    Coefficient

                          1       1    2s               10.077428      -0.684558
                                                         5.847736      -0.844524
                                                         2.494033       1.088856
                                                         0.988355       0.395503
                                                         0.344978       0.010224
                                                         0.099466      -0.003250

                          1       2    3s               10.077428       0.096747
                                                         5.847736       0.162504
                                                         2.494033      -0.297192
                                                         0.988355      -0.319752
                                                         0.344978       0.088318
                                                         0.099466       0.118587

                          1       3    4s               10.077428       0.036437
                                                         5.847736      -0.381480
                                                         2.494033       0.003759
                                                         0.988355      -1.048256
                                                         0.344978       0.855825
                                                         0.099466      -0.176350

                          1       4    3px              10.077428      -3.133913
                                                         5.847736       3.027656
                                                         2.494033       2.353227
                                                         0.988355       0.554184
                                                         0.344978       0.019462
                                                         0.099466      -0.000291
                          1       4    3py              10.077428      -3.133913
                                                         5.847736       3.027656
                                                         2.494033       2.353227
                                                         0.988355       0.554184
                                                         0.344978       0.019462
                                                         0.099466      -0.000291
                          1       4    3pz              10.077428      -3.133913
                                                         5.847736       3.027656
                                                         2.494033       2.353227
                                                         0.988355       0.554184
                                                         0.344978       0.019462
                                                         0.099466      -0.000291

                          1       5    4px              10.077428      -0.112729
                                                         5.847736      -0.114008
                                                         2.494033      -0.347303
                                                         0.988355      -0.110323
                                                         0.344978       0.154096
                                                         0.099466       0.058386
                          1       5    4py              10.077428      -0.112729
                                                         5.847736      -0.114008
                                                         2.494033      -0.347303
                                                         0.988355      -0.110323
                                                         0.344978       0.154096
                                                         0.099466       0.058386
                          1       5    4pz              10.077428      -0.112729
                                                         5.847736      -0.114008
                                                         2.494033      -0.347303
                                                         0.988355      -0.110323
                                                         0.344978       0.154096
                                                         0.099466       0.058386

                          1       6    4dx2             10.077428       8.232726
                                                         5.847736       9.105758
                                                         2.494033       2.849835
                                                         0.988355       0.554319
                                                         0.344978       0.067245
                                                         0.099466       0.001940
                          1       6    4dxy             10.077428      14.259500
                                                         5.847736      15.771636
                                                         2.494033       4.936060
                                                         0.988355       0.960109
                                                         0.344978       0.116472
                                                         0.099466       0.003360
                          1       6    4dxz             10.077428      14.259500
                                                         5.847736      15.771636
                                                         2.494033       4.936060
                                                         0.988355       0.960109
                                                         0.344978       0.116472
                                                         0.099466       0.003360
                          1       6    4dy2             10.077428       8.232726
                                                         5.847736       9.105758
                                                         2.494033       2.849835
                                                         0.988355       0.554319
                                                         0.344978       0.067245
                                                         0.099466       0.001940
                          1       6    4dyz             10.077428      14.259500
                                                         5.847736      15.771636
                                                         2.494033       4.936060
                                                         0.988355       0.960109
                                                         0.344978       0.116472
                                                         0.099466       0.003360
                          1       6    4dz2             10.077428       8.232726
                                                         5.847736       9.105758
                                                         2.494033       2.849835
                                                         0.988355       0.554319
                                                         0.344978       0.067245
                                                         0.099466       0.001940

                          1       7    5dx2             10.077428      -2.715373
                                                         5.847736      -4.020640
                                                         2.494033      -1.397569
                                                         0.988355      -0.076143
                                                         0.344978       0.033435
                                                         0.099466       0.026032
                          1       7    5dxy             10.077428      -4.703164
                                                         5.847736      -6.963952
                                                         2.494033      -2.420661
                                                         0.988355      -0.131883
                                                         0.344978       0.057911
                                                         0.099466       0.045088
                          1       7    5dxz             10.077428      -4.703164
                                                         5.847736      -6.963952
                                                         2.494033      -2.420661
                                                         0.988355      -0.131883
                                                         0.344978       0.057911
                                                         0.099466       0.045088
                          1       7    5dy2             10.077428      -2.715373
                                                         5.847736      -4.020640
                                                         2.494033      -1.397569
                                                         0.988355      -0.076143
                                                         0.344978       0.033435
                                                         0.099466       0.026032
                          1       7    5dyz             10.077428      -4.703164
                                                         5.847736      -6.963952
                                                         2.494033      -2.420661
                                                         0.988355      -0.131883
                                                         0.344978       0.057911
                                                         0.099466       0.045088
                          1       7    5dz2             10.077428      -2.715373
                                                         5.847736      -4.020640
                                                         2.494033      -1.397569
                                                         0.988355      -0.076143
                                                         0.344978       0.033435
                                                         0.099466       0.026032

                          1       8    5fx3             10.077428      -0.467694
                                                         5.847736       0.618100
                                                         2.494033       0.066069
                                                         0.988355       0.262898
                                                         0.344978       0.004720
                                                         0.099466       0.007748
                          1       8    5fx2y            10.077428      -1.045795
                                                         5.847736       1.382114
                                                         2.494033       0.147734
                                                         0.988355       0.587859
                                                         0.344978       0.010555
                                                         0.099466       0.017325
                          1       8    5fx2z            10.077428      -1.045795
                                                         5.847736       1.382114
                                                         2.494033       0.147734
                                                         0.988355       0.587859
                                                         0.344978       0.010555
                                                         0.099466       0.017325
                          1       8    5fxy2            10.077428      -1.045795
                                                         5.847736       1.382114
                                                         2.494033       0.147734
                                                         0.988355       0.587859
                                                         0.344978       0.010555
                                                         0.099466       0.017325
                          1       8    5fxyz            10.077428      -1.811371
                                                         5.847736       2.393892
                                                         2.494033       0.255883
                                                         0.988355       1.018201
                                                         0.344978       0.018282
                                                         0.099466       0.030008
                          1       8    5fxz2            10.077428      -1.045795
                                                         5.847736       1.382114
                                                         2.494033       0.147734
                                                         0.988355       0.587859
                                                         0.344978       0.010555
                                                         0.099466       0.017325
                          1       8    5fy3             10.077428      -0.467694
                                                         5.847736       0.618100
                                                         2.494033       0.066069
                                                         0.988355       0.262898
                                                         0.344978       0.004720
                                                         0.099466       0.007748
                          1       8    5fy2z            10.077428      -1.045795
                                                         5.847736       1.382114
                                                         2.494033       0.147734
                                                         0.988355       0.587859
                                                         0.344978       0.010555
                                                         0.099466       0.017325
                          1       8    5fyz2            10.077428      -1.045795
                                                         5.847736       1.382114
                                                         2.494033       0.147734
                                                         0.988355       0.587859
                                                         0.344978       0.010555
                                                         0.099466       0.017325
                          1       8    5fz3             10.077428      -0.467694
                                                         5.847736       0.618100
                                                         2.494033       0.066069
                                                         0.988355       0.262898
                                                         0.344978       0.004720
                                                         0.099466       0.007748

       Atomic covalent radius [Angstrom]:                                  1.150

       Atomic van der Waals radius [Angstrom]:                             1.630

     GTH Potential information for                                   GTH-PBE-q18

       Description:                       Goedecker-Teter-Hutter pseudopotential
                                           Goedecker et al., PRB 54, 1703 (1996)
                                          Hartwigsen et al., PRB 58, 3641 (1998)
                                                      Krack, TCA 114, 145 (2005)

       Gaussian exponent of the core charge distribution:               4.081633
       Electronic configuration (s p d ...):                           4   6   8

       Parameters of the local part of the GTH pseudopotential:

                          rloc        C1          C2          C3          C4
                        0.350000    2.102166    0.648484

       Parameters of the non-local part of the GTH pseudopotential:

                   l      r(l)      h(i,j,l)

                   0    0.261295    0.622658    9.970227
                                    9.970227  -12.871507
                   1    0.224253  -11.142708   12.429566
                                   12.429566  -14.706861
                   2    0.215348  -12.628146

  2. Atomic kind: Ni_b                                  Number of atoms:      16

     Orbital Basis Set                                        DZVP-MOLOPT-SR-GTH

       Number of orbital shell sets:                                           1
       Number of orbital shells:                                               8
       Number of primitive Cartesian functions:                                6
       Number of Cartesian basis functions:                                   31
       Number of spherical basis functions:                                   26
       Norm type:                                                              2

       Normalised Cartesian orbitals:

                        Set   Shell   Orbital            Exponent    Coefficient

                          1       1    2s               10.077428      -0.684558
                                                         5.847736      -0.844524
                                                         2.494033       1.088856
                                                         0.988355       0.395503
                                                         0.344978       0.010224
                                                         0.099466      -0.003250

                          1       2    3s               10.077428       0.096747
                                                         5.847736       0.162504
                                                         2.494033      -0.297192
                                                         0.988355      -0.319752
                                                         0.344978       0.088318
                                                         0.099466       0.118587

                          1       3    4s               10.077428       0.036437
                                                         5.847736      -0.381480
                                                         2.494033       0.003759
                                                         0.988355      -1.048256
                                                         0.344978       0.855825
                                                         0.099466      -0.176350

                          1       4    3px              10.077428      -3.133913
                                                         5.847736       3.027656
                                                         2.494033       2.353227
                                                         0.988355       0.554184
                                                         0.344978       0.019462
                                                         0.099466      -0.000291
                          1       4    3py              10.077428      -3.133913
                                                         5.847736       3.027656
                                                         2.494033       2.353227
                                                         0.988355       0.554184
                                                         0.344978       0.019462
                                                         0.099466      -0.000291
                          1       4    3pz              10.077428      -3.133913
                                                         5.847736       3.027656
                                                         2.494033       2.353227
                                                         0.988355       0.554184
                                                         0.344978       0.019462
                                                         0.099466      -0.000291

                          1       5    4px              10.077428      -0.112729
                                                         5.847736      -0.114008
                                                         2.494033      -0.347303
                                                         0.988355      -0.110323
                                                         0.344978       0.154096
                                                         0.099466       0.058386
                          1       5    4py              10.077428      -0.112729
                                                         5.847736      -0.114008
                                                         2.494033      -0.347303
                                                         0.988355      -0.110323
                                                         0.344978       0.154096
                                                         0.099466       0.058386
                          1       5    4pz              10.077428      -0.112729
                                                         5.847736      -0.114008
                                                         2.494033      -0.347303
                                                         0.988355      -0.110323
                                                         0.344978       0.154096
                                                         0.099466       0.058386

                          1       6    4dx2             10.077428       8.232726
                                                         5.847736       9.105758
                                                         2.494033       2.849835
                                                         0.988355       0.554319
                                                         0.344978       0.067245
                                                         0.099466       0.001940
                          1       6    4dxy             10.077428      14.259500
                                                         5.847736      15.771636
                                                         2.494033       4.936060
                                                         0.988355       0.960109
                                                         0.344978       0.116472
                                                         0.099466       0.003360
                          1       6    4dxz             10.077428      14.259500
                                                         5.847736      15.771636
                                                         2.494033       4.936060
                                                         0.988355       0.960109
                                                         0.344978       0.116472
                                                         0.099466       0.003360
                          1       6    4dy2             10.077428       8.232726
                                                         5.847736       9.105758
                                                         2.494033       2.849835
                                                         0.988355       0.554319
                                                         0.344978       0.067245
                                                         0.099466       0.001940
                          1       6    4dyz             10.077428      14.259500
                                                         5.847736      15.771636
                                                         2.494033       4.936060
                                                         0.988355       0.960109
                                                         0.344978       0.116472
                                                         0.099466       0.003360
                          1       6    4dz2             10.077428       8.232726
                                                         5.847736       9.105758
                                                         2.494033       2.849835
                                                         0.988355       0.554319
                                                         0.344978       0.067245
                                                         0.099466       0.001940

                          1       7    5dx2             10.077428      -2.715373
                                                         5.847736      -4.020640
                                                         2.494033      -1.397569
                                                         0.988355      -0.076143
                                                         0.344978       0.033435
                                                         0.099466       0.026032
                          1       7    5dxy             10.077428      -4.703164
                                                         5.847736      -6.963952
                                                         2.494033      -2.420661
                                                         0.988355      -0.131883
                                                         0.344978       0.057911
                                                         0.099466       0.045088
                          1       7    5dxz             10.077428      -4.703164
                                                         5.847736      -6.963952
                                                         2.494033      -2.420661
                                                         0.988355      -0.131883
                                                         0.344978       0.057911
                                                         0.099466       0.045088
                          1       7    5dy2             10.077428      -2.715373
                                                         5.847736      -4.020640
                                                         2.494033      -1.397569
                                                         0.988355      -0.076143
                                                         0.344978       0.033435
                                                         0.099466       0.026032
                          1       7    5dyz             10.077428      -4.703164
                                                         5.847736      -6.963952
                                                         2.494033      -2.420661
                                                         0.988355      -0.131883
                                                         0.344978       0.057911
                                                         0.099466       0.045088
                          1       7    5dz2             10.077428      -2.715373
                                                         5.847736      -4.020640
                                                         2.494033      -1.397569
                                                         0.988355      -0.076143
                                                         0.344978       0.033435
                                                         0.099466       0.026032

                          1       8    5fx3             10.077428      -0.467694
                                                         5.847736       0.618100
                                                         2.494033       0.066069
                                                         0.988355       0.262898
                                                         0.344978       0.004720
                                                         0.099466       0.007748
                          1       8    5fx2y            10.077428      -1.045795
                                                         5.847736       1.382114
                                                         2.494033       0.147734
                                                         0.988355       0.587859
                                                         0.344978       0.010555
                                                         0.099466       0.017325
                          1       8    5fx2z            10.077428      -1.045795
                                                         5.847736       1.382114
                                                         2.494033       0.147734
                                                         0.988355       0.587859
                                                         0.344978       0.010555
                                                         0.099466       0.017325
                          1       8    5fxy2            10.077428      -1.045795
                                                         5.847736       1.382114
                                                         2.494033       0.147734
                                                         0.988355       0.587859
                                                         0.344978       0.010555
                                                         0.099466       0.017325
                          1       8    5fxyz            10.077428      -1.811371
                                                         5.847736       2.393892
                                                         2.494033       0.255883
                                                         0.988355       1.018201
                                                         0.344978       0.018282
                                                         0.099466       0.030008
                          1       8    5fxz2            10.077428      -1.045795
                                                         5.847736       1.382114
                                                         2.494033       0.147734
                                                         0.988355       0.587859
                                                         0.344978       0.010555
                                                         0.099466       0.017325
                          1       8    5fy3             10.077428      -0.467694
                                                         5.847736       0.618100
                                                         2.494033       0.066069
                                                         0.988355       0.262898
                                                         0.344978       0.004720
                                                         0.099466       0.007748
                          1       8    5fy2z            10.077428      -1.045795
                                                         5.847736       1.382114
                                                         2.494033       0.147734
                                                         0.988355       0.587859
                                                         0.344978       0.010555
                                                         0.099466       0.017325
                          1       8    5fyz2            10.077428      -1.045795
                                                         5.847736       1.382114
                                                         2.494033       0.147734
                                                         0.988355       0.587859
                                                         0.344978       0.010555
                                                         0.099466       0.017325
                          1       8    5fz3             10.077428      -0.467694
                                                         5.847736       0.618100
                                                         2.494033       0.066069
                                                         0.988355       0.262898
                                                         0.344978       0.004720
                                                         0.099466       0.007748

       Atomic covalent radius [Angstrom]:                                  1.150

       Atomic van der Waals radius [Angstrom]:                             1.630

     GTH Potential information for                                   GTH-PBE-q18

       Description:                       Goedecker-Teter-Hutter pseudopotential
                                           Goedecker et al., PRB 54, 1703 (1996)
                                          Hartwigsen et al., PRB 58, 3641 (1998)
                                                      Krack, TCA 114, 145 (2005)

       Gaussian exponent of the core charge distribution:               4.081633
       Electronic configuration (s p d ...):                           4   6   8

       Parameters of the local part of the GTH pseudopotential:

                          rloc        C1          C2          C3          C4
                        0.350000    2.102166    0.648484

       Parameters of the non-local part of the GTH pseudopotential:

                   l      r(l)      h(i,j,l)

                   0    0.261295    0.622658    9.970227
                                    9.970227  -12.871507
                   1    0.224253  -11.142708   12.429566
                                   12.429566  -14.706861
                   2    0.215348  -12.628146


 MOLECULE KIND INFORMATION


 All atoms are their own molecule, skipping detailed information


 TOTAL NUMBERS AND MAXIMUM NUMBERS

  Total number of            - Atomic kinds:                                   2
                             - Atoms:                                         32
                             - Shell sets:                                    32
                             - Shells:                                       256
                             - Primitive Cartesian functions:                192
                             - Cartesian basis functions:                    992
                             - Spherical basis functions:                    832

  Maximum angular momentum of- Orbital basis functions:                        3
                             - Local part of the GTH pseudopotential:          2
                             - Non-local part of the GTH pseudopotential:      3


 MODULE QUICKSTEP: ATOMIC COORDINATES IN ANGSTROM

   Atom Kind Element         X             Y             Z       Z(eff)     Mass
      1    1 Ni   28      0.876298      0.876298      7.370500  18.0000  58.6934
      2    1 Ni   28      0.876298      4.382298      7.370500  18.0000  58.6934
      3    1 Ni   28      2.629298      2.629298      7.370500  18.0000  58.6934
      4    1 Ni   28      2.629298      6.135298      7.370500  18.0000  58.6934
      5    1 Ni   28      4.382298      0.876298      7.370500  18.0000  58.6934
      6    1 Ni   28      4.382298      4.382298      7.370500  18.0000  58.6934
      7    1 Ni   28      6.135298      2.629298      7.370500  18.0000  58.6934
      8    1 Ni   28      6.135298      6.135298      7.370500  18.0000  58.6934
      9    2 Ni   28      0.876298      2.629298      9.123500  18.0000  58.6934
     10    2 Ni   28      0.876298      6.135298      9.123500  18.0000  58.6934
     11    2 Ni   28      2.629298      0.876298      9.123500  18.0000  58.6934
     12    2 Ni   28      2.629298      4.382298      9.123500  18.0000  58.6934
     13    2 Ni   28      4.382298      2.629298      9.123500  18.0000  58.6934
     14    2 Ni   28      4.382298      6.135298      9.123500  18.0000  58.6934
     15    2 Ni   28      6.135298      0.876298      9.123500  18.0000  58.6934
     16    2 Ni   28      6.135298      4.382298      9.123500  18.0000  58.6934
     17    2 Ni   28      0.876298      0.876298     10.876500  18.0000  58.6934
     18    2 Ni   28      0.876298      4.382298     10.876500  18.0000  58.6934
     19    2 Ni   28      2.629298      2.629298     10.876500  18.0000  58.6934
     20    2 Ni   28      2.629298      6.135298     10.876500  18.0000  58.6934
     21    2 Ni   28      4.382298      0.876298     10.876500  18.0000  58.6934
     22    2 Ni   28      4.382298      4.382298     10.876500  18.0000  58.6934
     23    2 Ni   28      6.135298      2.629298     10.876500  18.0000  58.6934
     24    2 Ni   28      6.135298      6.135298     10.876500  18.0000  58.6934
     25    1 Ni   28      0.876298      2.629298     12.629500  18.0000  58.6934
     26    1 Ni   28      0.876298      6.135298     12.629500  18.0000  58.6934
     27    1 Ni   28      2.629298      0.876298     12.629500  18.0000  58.6934
     28    1 Ni   28      2.629298      4.382298     12.629500  18.0000  58.6934
     29    1 Ni   28      4.382298      2.629298     12.629500  18.0000  58.6934
     30    1 Ni   28      4.382298      6.135298     12.629500  18.0000  58.6934
     31    1 Ni   28      6.135298      0.876298     12.629500  18.0000  58.6934
     32    1 Ni   28      6.135298      4.382298     12.629500  18.0000  58.6934



 SCF PARAMETERS         Density guess:                                    ATOMIC
                        --------------------------------------------------------
                        max_scf:                                             500
                        max_scf_history:                                       0
                        max_diis:                                              4
                        --------------------------------------------------------
                        eps_scf:                                        1.00E-04
                        eps_scf_history:                                0.00E+00
                        eps_diis:                                       1.00E-01
                        eps_eigval:                                     1.00E-05
                        --------------------------------------------------------
                        level_shift [a.u.]:                             0.000000
                        added MOs                                       531  556
                        --------------------------------------------------------
                        Mixing method:                            BROYDEN_MIXING
                                                charge density mixing in g-space
                        --------------------------------------------------------
                        Smear method:                                FERMI_DIRAC
                        Electronic temperature [K]:                       2000.0
                        Electronic temperature [a.u.]:                  6.33E-03
                        Accuracy threshold:                             1.00E-10
                        --------------------------------------------------------
                        No outer SCF

 PW_GRID| Information for grid number                                          1
 PW_GRID| Grid distributed over                                   128 processors
 PW_GRID| Real space group dimensions                                     8   16
 PW_GRID| the grid is blocked:                                               YES
 PW_GRID| Cutoff [a.u.]                                                    300.0
 PW_GRID| spherical cutoff:                                                   NO
 PW_GRID|   Bounds   1            -54      53                Points:         108
 PW_GRID|   Bounds   2            -54      53                Points:         108
 PW_GRID|   Bounds   3           -150     149                Points:         300
 PW_GRID| Volume element (a.u.^3)  0.1896E-02     Volume (a.u.^3)      6635.2971
 PW_GRID| Grid span                                                    FULLSPACE
 PW_GRID|   Distribution                         Average         Max         Min
 PW_GRID|   G-Vectors                            27337.5       28728       25272
 PW_GRID|   G-Rays                                 253.1         266         234
 PW_GRID|   Real Space Points                    27337.5       28728       25272

 PW_GRID| Information for grid number                                          2
 PW_GRID| Number of the reference grid                                         1
 PW_GRID| Grid distributed over                                   128 processors
 PW_GRID| Real space group dimensions                                     8   16
 PW_GRID| the grid is blocked:                                                NO
 PW_GRID| Cutoff [a.u.]                                                    100.0
 PW_GRID| spherical cutoff:                                                   NO
 PW_GRID|   Bounds   1            -30      29                Points:          60
 PW_GRID|   Bounds   2            -30      29                Points:          60
 PW_GRID|   Bounds   3            -90      89                Points:         180
 PW_GRID| Volume element (a.u.^3)  0.1024E-01     Volume (a.u.^3)      6635.2971
 PW_GRID| Grid span                                                    FULLSPACE
 PW_GRID|   Distribution                         Average         Max         Min
 PW_GRID|   G-Vectors                             5062.5       15960           0
 PW_GRID|   G-Rays                                  84.4         266           0
 PW_GRID|   Real Space Points                     5062.5        5760        3780

 PW_GRID| Information for grid number                                          3
 PW_GRID| Number of the reference grid                                         1
 PW_GRID| Grid distributed over                                   128 processors
 PW_GRID| Real space group dimensions                                     8   16
 PW_GRID| the grid is blocked:                                                NO
 PW_GRID| Cutoff [a.u.]                                                     33.3
 PW_GRID| spherical cutoff:                                                   NO
 PW_GRID|   Bounds   1            -18      17                Points:          36
 PW_GRID|   Bounds   2            -18      17                Points:          36
 PW_GRID|   Bounds   3            -50      49                Points:         100
 PW_GRID| Volume element (a.u.^3)  0.5120E-01     Volume (a.u.^3)      6635.2971
 PW_GRID| Grid span                                                    FULLSPACE
 PW_GRID|   Distribution                         Average         Max         Min
 PW_GRID|   G-Vectors                             1012.5        9576           0
 PW_GRID|   G-Rays                                  28.1         266           0
 PW_GRID|   Real Space Points                     1012.5        1500         800

 PW_GRID| Information for grid number                                          4
 PW_GRID| Number of the reference grid                                         1
 PW_GRID| Grid distributed over                                   128 processors
 PW_GRID| Real space group dimensions                                     8   16
 PW_GRID| the grid is blocked:                                                NO
 PW_GRID| Cutoff [a.u.]                                                     11.1
 PW_GRID| spherical cutoff:                                                   NO
 PW_GRID|   Bounds   1            -10       9                Points:          20
 PW_GRID|   Bounds   2            -10       9                Points:          20
 PW_GRID|   Bounds   3            -30      29                Points:          60
 PW_GRID| Volume element (a.u.^3)  0.2765         Volume (a.u.^3)      6635.2971
 PW_GRID| Grid span                                                    FULLSPACE
 PW_GRID|   Distribution                         Average         Max         Min
 PW_GRID|   G-Vectors                              187.5        3800           0
 PW_GRID|   G-Rays                                   9.4         190           0
 PW_GRID|   Real Space Points                      187.5         360         120

 PW_GRID| Information for grid number                                          5
 PW_GRID| Number of the reference grid                                         1
 PW_GRID| Grid distributed over                                   128 processors
 PW_GRID| Real space group dimensions                                     8   16
 PW_GRID| the grid is blocked:                                                NO
 PW_GRID| Cutoff [a.u.]                                                      3.7
 PW_GRID| spherical cutoff:                                                   NO
 PW_GRID|   Bounds   1             -6       5                Points:          12
 PW_GRID|   Bounds   2             -6       5                Points:          12
 PW_GRID|   Bounds   3            -18      17                Points:          36
 PW_GRID| Volume element (a.u.^3)   1.280         Volume (a.u.^3)      6635.2971
 PW_GRID| Grid span                                                    FULLSPACE
 PW_GRID|   Distribution                         Average         Max         Min
 PW_GRID|   G-Vectors                               40.5        1296           0
 PW_GRID|   G-Rays                                   3.4         108           0
 PW_GRID|   Real Space Points                       40.5          72           0

 POISSON| Solver                                                        PERIODIC
 POISSON| Periodicity                                                        XYZ

 RS_GRID| Information for grid number                                          1
 RS_GRID|   Bounds   1            -54      53                Points:         108
 RS_GRID|   Bounds   2            -54      53                Points:         108
 RS_GRID|   Bounds   3           -150     149                Points:         300
 RS_GRID| Real space distribution over                                  8 groups
 RS_GRID| Real space distribution along direction                              2
 RS_GRID| Border size                                                         28
 RS_GRID| Real space distribution over                                 16 groups
 RS_GRID| Real space distribution along direction                              3
 RS_GRID| Border size                                                         28
 RS_GRID|   Distribution                         Average         Max         Min
 RS_GRID|   Planes                                  69.5          70          69
 RS_GRID|   Distribution                         Average         Max         Min
 RS_GRID|   Planes                                  74.8          75          74

 RS_GRID| Information for grid number                                          2
 RS_GRID|   Bounds   1            -30      29                Points:          60
 RS_GRID|   Bounds   2            -30      29                Points:          60
 RS_GRID|   Bounds   3            -90      89                Points:         180
 RS_GRID| Real space fully replicated
 RS_GRID| Group size                                                           1

 RS_GRID| Information for grid number                                          3
 RS_GRID|   Bounds   1            -18      17                Points:          36
 RS_GRID|   Bounds   2            -18      17                Points:          36
 RS_GRID|   Bounds   3            -50      49                Points:         100
 RS_GRID| Real space fully replicated
 RS_GRID| Group size                                                           1

 RS_GRID| Information for grid number                                          4
 RS_GRID|   Bounds   1            -10       9                Points:          20
 RS_GRID|   Bounds   2            -10       9                Points:          20
 RS_GRID|   Bounds   3            -30      29                Points:          60
 RS_GRID| Real space fully replicated
 RS_GRID| Group size                                                           1

 RS_GRID| Information for grid number                                          5
 RS_GRID|   Bounds   1             -6       5                Points:          12
 RS_GRID|   Bounds   2             -6       5                Points:          12
 RS_GRID|   Bounds   3            -18      17                Points:          36
 RS_GRID| Real space fully replicated
 RS_GRID| Group size                                                           1

 Spin 1

 Number of electrons:                                                        300.800
 Number of occupied orbitals:                                                301
 Number of molecular orbitals:                                               832

 Spin 2

 Number of electrons:                                                        275.200
 Number of occupied orbitals:                                                276
 Number of molecular orbitals:                                               832

 Number of orbital functions:                                                832
 Number of independent orbital functions:                                    832

 Extrapolation method: initial_guess

 Atomic guess: The first density matrix is obtained in terms of atomic orbitals
               and electronic configurations assigned to each atomic kind

 Guess for atomic kind: Ni_i

 Electronic structure
    Total number of core electrons                                         10.00
    Total number of valence electrons                                      18.00
    Total number of electrons                                              28.00
    Multiplicity                                                         doublet
    Alpha Electrons
    S   [  1.00  1.00] 1.00  1.00
    P   [  3.00] 3.00
    D      4.40
    Beta Electrons
    S   [  1.00  1.00] 1.00  1.00
    P   [  3.00] 3.00
    D      3.60


 *******************************************************************************
                  Iteration          Convergence                     Energy [au]
 *******************************************************************************
                          1         1.51750                    -167.068932204718
                          2         15.5935                    -156.656530566819
                          3         2.37322                    -168.320625176021
                          4        0.215236                    -168.611142488999
                          5        0.864690E-01                -168.614185977773
                          6        0.204270E-01                -168.614864366588
                          7        0.117629E-02                -168.614962284536
                          8        0.143499E-02                -168.614962241165
                          9        0.165550E-03                -168.614962454733
                         10        0.801651E-03                -168.614962414936
                         11        0.526340E-03                -168.614962440154
                         12        0.114214E-03                -168.614962458210
                         13        0.974554E-04                -168.614962459061
                         14        0.103837E-03                -168.614962459937
                         15        0.922182E-04                -168.614962460311
                         16        0.489415E-04                -168.614962460739
                         17        0.376531E-04                -168.614962461148
                         18        0.319337E-04                -168.614962461185
                         19        0.537275E-04                -168.614962461068
                         20        0.409549E-04                -168.614962461145
                         21        0.226152E-04                -168.614962461237
                         22        0.174462E-04                -168.614962461257
                         23        0.165586E-04                -168.614962461260
                         24        0.160650E-04                -168.614962461262
                         25        0.113583E-04                -168.614962461280
                         26        0.503754E-05                -168.614962461287
                         27        0.239088E-05                -168.614962461289
                         28        0.206656E-05                -168.614962461289
                         29        0.678810E-06                -168.614962461289

 Energy components [Hartree]           Total Energy ::         -168.614962461289
                                        Band Energy ::          -26.570438398031
                                     Kinetic Energy ::           97.308645535822
                                   Potential Energy ::         -265.923607997111
                                      Virial (-V/T) ::            2.732785011371
                                        Core Energy ::         -299.569105195415
                                          XC Energy ::          -16.228812263913
                                     Coulomb Energy ::          147.182954998038
                       Total Pseudopotential Energy ::         -396.964091881334
                       Local Pseudopotential Energy ::         -362.650332264705
                    Nonlocal Pseudopotential Energy ::          -34.313759616629
                                        Confinement ::            0.863411500974

 Orbital energies  State     Spin  L     Occupation   Energy[a.u.]    Energy[eV]

                       1    alpha  0          1.000      -4.174802   -113.602130
                       2    alpha  0          1.000      -0.181779     -4.946449
                       1     beta  0          1.000      -4.138200   -112.606137
                       2     beta  0          1.000      -0.175997     -4.789129

                       1    alpha  1          3.000      -2.580817    -70.227599
                       1     beta  1          3.000      -2.545205    -69.258560

                       1    alpha  2          4.400      -0.328813     -8.947444
                       1     beta  2          3.600      -0.298561     -8.124256


 Total Electron Density at R=0:                                         0.030417

 Guess for atomic kind: Ni_b

 Electronic structure
    Total number of core electrons                                         10.00
    Total number of valence electrons                                      18.00
    Total number of electrons                                              28.00
    Multiplicity                                                         doublet
    Alpha Electrons
    S   [  1.00  1.00] 1.00  1.00
    P   [  3.00] 3.00
    D      4.40
    Beta Electrons
    S   [  1.00  1.00] 1.00  1.00
    P   [  3.00] 3.00
    D      3.60


 *******************************************************************************
                  Iteration          Convergence                     Energy [au]
 *******************************************************************************
                          1         1.51750                    -167.068932204718
                          2         15.5935                    -156.656530566819
                          3         2.37322                    -168.320625176021
                          4        0.215236                    -168.611142488999
                          5        0.864690E-01                -168.614185977773
                          6        0.204270E-01                -168.614864366588
                          7        0.117629E-02                -168.614962284536
                          8        0.143499E-02                -168.614962241165
                          9        0.165550E-03                -168.614962454733
                         10        0.801651E-03                -168.614962414936
                         11        0.526340E-03                -168.614962440154
                         12        0.114214E-03                -168.614962458210
                         13        0.974554E-04                -168.614962459061
                         14        0.103837E-03                -168.614962459937
                         15        0.922182E-04                -168.614962460311
                         16        0.489415E-04                -168.614962460739
                         17        0.376531E-04                -168.614962461148
                         18        0.319337E-04                -168.614962461185
                         19        0.537275E-04                -168.614962461068
                         20        0.409549E-04                -168.614962461145
                         21        0.226152E-04                -168.614962461237
                         22        0.174462E-04                -168.614962461257
                         23        0.165586E-04                -168.614962461260
                         24        0.160650E-04                -168.614962461262
                         25        0.113583E-04                -168.614962461280
                         26        0.503754E-05                -168.614962461287
                         27        0.239088E-05                -168.614962461289
                         28        0.206656E-05                -168.614962461289
                         29        0.678810E-06                -168.614962461289

 Energy components [Hartree]           Total Energy ::         -168.614962461289
                                        Band Energy ::          -26.570438398031
                                     Kinetic Energy ::           97.308645535822
                                   Potential Energy ::         -265.923607997111
                                      Virial (-V/T) ::            2.732785011371
                                        Core Energy ::         -299.569105195415
                                          XC Energy ::          -16.228812263913
                                     Coulomb Energy ::          147.182954998038
                       Total Pseudopotential Energy ::         -396.964091881334
                       Local Pseudopotential Energy ::         -362.650332264705
                    Nonlocal Pseudopotential Energy ::          -34.313759616629
                                        Confinement ::            0.863411500974

 Orbital energies  State     Spin  L     Occupation   Energy[a.u.]    Energy[eV]

                       1    alpha  0          1.000      -4.174802   -113.602130
                       2    alpha  0          1.000      -0.181779     -4.946449
                       1     beta  0          1.000      -4.138200   -112.606137
                       2     beta  0          1.000      -0.175997     -4.789129

                       1    alpha  1          3.000      -2.580817    -70.227599
                       1     beta  1          3.000      -2.545205    -69.258560

                       1    alpha  2          4.400      -0.328813     -8.947444
                       1     beta  2          3.600      -0.298561     -8.124256


 Total Electron Density at R=0:                                         0.030417

 Spin 1
 Re-scaling the density matrix to get the right number of electrons for spin 1
                  # Electrons              Trace(P)               Scaling factor
                        300.800             300.800                        1.000

 Spin 2
 Re-scaling the density matrix to get the right number of electrons for spin 2
                  # Electrons              Trace(P)               Scaling factor
                        275.200             275.200                        1.000


 SCF WAVEFUNCTION OPTIMIZATION

  Step     Update method      Time    Convergence         Total energy    Change
  ------------------------------------------------------------------------------
     1 NoMix/Diag. 0.80E-01    1.6     0.87228507     -5426.5261642460 -5.43E+03
     2 Broy./Diag. 0.80E-01    1.5     0.01549223     -5317.8698572510  1.09E+02
     3 Broy./Diag. 0.80E-01    1.5     0.05286178     -5353.7913727202 -3.59E+01
     4 Broy./Diag. 0.80E-01    1.5     0.00328469     -5417.0280565606 -6.32E+01
     5 Broy./Diag. 0.80E-01    1.5     0.02483192     -5414.3062801067  2.72E+00
     6 Broy./Diag. 0.80E-01    1.5     0.00271884     -5418.4277272870 -4.12E+00
     7 Broy./Diag. 0.80E-01    1.5     0.01508413     -5416.8382162095  1.59E+00
     8 Broy./Diag. 0.80E-01    1.5     0.00492315     -5418.7274243037 -1.89E+00
     9 Broy./Diag. 0.80E-01    1.5     0.00809055     -5416.4428860910  2.28E+00
[...]
   121 Broy./Diag. 0.80E-01    1.5     0.00568654     -5417.6466719250 -2.58E-03
   122 Broy./Diag. 0.80E-01    1.5     0.00300735     -5417.6904831336 -4.38E-02
   123 Broy./Diag. 0.80E-01    1.5     0.00847714     -5417.7297046542 -3.92E-02
   124 Broy./Diag. 0.80E-01    1.5     0.01317912     -5417.9061268377 -1.76E-01
   125 Broy./Diag. 0.80E-01    1.5     0.00948782     -5417.8299025552  7.62E-02
   126 Broy./Diag. 0.80E-01    1.5     0.00899374     -5417.9200221733 -9.01E-02
   127 Broy./Diag. 0.80E-01    1.5     0.01101490     -5418.0653520298 -1.45E-01
   128 Broy./Diag. 0.80E-01    1.5     0.00525688     -5417.7786322016  2.87E-01
   129 Broy./Diag. 0.80E-01    1.5     0.01362660     -5417.8114713281 -3.28E-02
   130 Broy./Diag. 0.80E-01    1.5     0.00773763     -5417.8893226356 -7.79E-02
   131 Broy./Diag. 0.80E-01    1.5     0.00726172     -5418.0333126329 -1.44E-01
   132 Broy./Diag. 0.80E-01    1.5     0.01030087     -5417.9261030865  1.07E-01
   133 Broy./Diag. 0.80E-01    1.5     0.00317801     -5417.8052342020  1.21E-01
   134 Broy./Diag. 0.80E-01    1.5     0.00247361     -5417.8143551598 -9.12E-03
   135 Broy./Diag. 0.80E-01    1.5     0.00202045     -5417.7220364931  9.23E-02
   136 Broy./Diag. 0.80E-01    1.5     0.00860123     -5417.6281253698  9.39E-02
   137 Broy./Diag. 0.80E-01    1.5     0.00361139     -5417.6274583208  6.67E-04
   138 Broy./Diag. 0.80E-01    1.5     0.00490936     -5417.6354019845 -7.94E-03
   139 Broy./Diag. 0.80E-01    1.5     0.00482432     -5417.6861186357 -5.07E-02
   140 Broy./Diag. 0.80E-01    1.5     0.00501198     -5417.6060855358  8.00E-02
   141 Broy./Diag. 0.80E-01    1.5     0.01089131     -5417.5142692252  9.18E-02
   142 Broy./Diag. 0.80E-01    1.5     0.00498668     -5417.5292616433 -1.50E-02
   143 Broy./Diag. 0.80E-01    1.5     0.00478961     -5417.6453552323 -1.16E-01
   144 Broy./Diag. 0.80E-01    1.5     0.02862875     -5417.8052037703 -1.60E-01
   145 Broy./Diag. 0.80E-01    1.5     0.02224677     -5417.9312642227 -1.26E-01
   146 Broy./Diag. 0.80E-01    1.5     0.00184679     -5417.7330556840  1.98E-01
   147 Broy./Diag. 0.80E-01    1.5     0.00126303     -5417.8853457873 -1.52E-01
   148 Broy./Diag. 0.80E-01    1.5     0.01009842     -5417.8056806152  7.97E-02
   149 Broy./Diag. 0.80E-01    1.5     0.00406878     -5417.7068004809  9.89E-02
   150 Broy./Diag. 0.80E-01    1.5     0.02553252     -5417.7793620683 -7.26E-02
   151 Broy./Diag. 0.80E-01    1.5     0.02135431     -5417.7740282230  5.33E-03
   152 Broy./Diag. 0.80E-01    1.5     0.00930553     -5417.7815239892 -7.50E-03
   153 Broy./Diag. 0.80E-01    1.5     0.01499270     -5417.7819179382 -3.94E-04
   154 Broy./Diag. 0.80E-01    1.5     0.01644018     -5417.9711808310 -1.89E-01
   155 Broy./Diag. 0.80E-01    1.5     0.01149623     -5417.9319985937  3.92E-02
   156 Broy./Diag. 0.80E-01    1.5     0.00515888     -5417.8599160628  7.21E-02
   157 Broy./Diag. 0.80E-01    1.5     0.01603252     -5417.8737720048 -1.39E-02
   158 Broy./Diag. 0.80E-01    1.5     0.00626580     -5417.5987315232  2.75E-01
   159 Broy./Diag. 0.80E-01    1.5     0.01245490     -5417.5207715735  7.80E-02
   160 Broy./Diag. 0.80E-01    1.5     0.00917598     -5417.6157450545 -9.50E-02
   161 Broy./Diag. 0.80E-01    1.5     0.00856067     -5417.7156008825 -9.99E-02
   162 Broy./Diag. 0.80E-01    1.5     0.01090134     -5417.6481508427  6.75E-02
   163 Broy./Diag. 0.80E-01    1.5     0.00621761     -5417.6572314294 -9.08E-03
   164 Broy./Diag. 0.80E-01    1.5     0.00870176     -5417.5443272084  1.13E-01
   165 Broy./Diag. 0.80E-01    1.5     0.00968928     -5417.6833125960 -1.39E-01
   166 Broy./Diag. 0.80E-01    1.5     0.00313423     -5417.5950087840  8.83E-02
   167 Broy./Diag. 0.80E-01    1.5     0.00452209     -5417.5580454566  3.70E-02
   168 Broy./Diag. 0.80E-01    1.5     0.01122083     -5417.5467109128  1.13E-02
   169 Broy./Diag. 0.80E-01    1.5     0.00497477     -5417.7327862300 -1.86E-01
   170 Broy./Diag. 0.80E-01    1.5     0.00498381     -5417.6164747193  1.16E-01
   171 Broy./Diag. 0.80E-01    1.5     0.00210615     -5417.6706077373 -5.41E-02
   172 Broy./Diag. 0.80E-01    1.5     0.00701229     -5417.7052631707 -3.47E-02
   173 Broy./Diag. 0.80E-01    1.5     0.00358715     -5417.6653339514  3.99E-02
   174 Broy./Diag. 0.80E-01    1.5     0.00508582     -5417.7424889034 -7.72E-02
   175 Broy./Diag. 0.80E-01    1.5     0.00083955     -5417.6457235762  9.68E-02
   176 Broy./Diag. 0.80E-01    1.5     0.00246136     -5417.6276413820  1.81E-02
   177 Broy./Diag. 0.80E-01    1.5     0.00212212     -5417.5644163773  6.32E-02
   178 Broy./Diag. 0.80E-01    1.5     0.00174569     -5417.4769104813  8.75E-02
   179 Broy./Diag. 0.80E-01    1.5     0.00333154     -5417.4767014434  2.09E-04
   180 Broy./Diag. 0.80E-01    1.5     0.00265685     -5417.4632787371  1.34E-02
   181 Broy./Diag. 0.80E-01    1.5     0.00738337     -5417.4605457560  2.73E-03
   182 Broy./Diag. 0.80E-01    1.5     0.00880647     -5417.5680720754 -1.08E-01
   183 Broy./Diag. 0.80E-01    1.5     0.00220599     -5417.5679817086  9.04E-05
   184 Broy./Diag. 0.80E-01    1.5     0.00799019     -5417.6708197342 -1.03E-01
   185 Broy./Diag. 0.80E-01    1.5     0.00159832     -5417.6521964064  1.86E-02
   186 Broy./Diag. 0.80E-01    1.5     0.00341637     -5417.6038794450  4.83E-02
   187 Broy./Diag. 0.80E-01    1.5     0.01249069     -5417.5760178732  2.79E-02
   188 Broy./Diag. 0.80E-01    1.5     0.02563021     -5417.3143504913  2.62E-01
   189 Broy./Diag. 0.80E-01    1.5     0.01403861     -5417.7098600610 -3.96E-01
   190 Broy./Diag. 0.80E-01    1.5     0.00520351     -5417.4335932559  2.76E-01
   191 Broy./Diag. 0.80E-01    1.5     0.00855763     -5417.5869376336 -1.53E-01
   192 Broy./Diag. 0.80E-01    1.5     0.00465178     -5417.2212083177  3.66E-01
   193 Broy./Diag. 0.80E-01    1.5     0.01375667     -5417.3475969143 -1.26E-01
   194 Broy./Diag. 0.80E-01    1.5     0.02423637     -5417.2741412898  7.35E-02
   195 Broy./Diag. 0.80E-01    1.5     0.02129558     -5417.3058046782 -3.17E-02
   196 Broy./Diag. 0.80E-01    1.5     0.00819808     -5417.0126624326  2.93E-01
   197 Broy./Diag. 0.80E-01    1.5     0.01255786     -5416.9908134052  2.18E-02
   198 Broy./Diag. 0.80E-01    1.5     0.01175569     -5417.0693605636 -7.85E-02
   199 Broy./Diag. 0.80E-01    1.5     0.01171254     -5416.7951474148  2.74E-01
   200 Broy./Diag. 0.80E-01    1.5     0.01898784     -5417.2015898489 -4.06E-01
   201 Broy./Diag. 0.80E-01    1.5     0.00585303     -5416.8682274375  3.33E-01
   202 Broy./Diag. 0.80E-01    1.5     0.00286137     -5416.6843551692  1.84E-01
   203 Broy./Diag. 0.80E-01    1.5     0.01380682     -5416.6869136225 -2.56E-03
   204 Broy./Diag. 0.80E-01    1.5     0.01742091     -5416.4792101212  2.08E-01
   205 Broy./Diag. 0.80E-01    1.5     0.00519706     -5416.3211057952  1.58E-01
   206 Broy./Diag. 0.80E-01    1.5     0.00453594     -5416.2927661789  2.83E-02
   207 Broy./Diag. 0.80E-01    1.5     0.00662617     -5416.2506134600  4.22E-02
   208 Broy./Diag. 0.80E-01    1.5     0.01015118     -5416.0547382565  1.96E-01
   209 Broy./Diag. 0.80E-01    1.5     0.01467049     -5415.9457113665  1.09E-01
   210 Broy./Diag. 0.80E-01    1.5     0.00413545     -5416.5157497941 -5.70E-01
   211 Broy./Diag. 0.80E-01    1.5     0.01325432     -5416.7873934565 -2.72E-01
   212 Broy./Diag. 0.80E-01    1.5     0.00491022     -5417.0678792809 -2.80E-01
   213 Broy./Diag. 0.80E-01    1.5     0.00237263     -5416.9524694789  1.15E-01
   214 Broy./Diag. 0.80E-01    1.5     0.00644379     -5416.9751290065 -2.27E-02
   215 Broy./Diag. 0.80E-01    1.5     0.01684326     -5417.0285112416 -5.34E-02
   216 Broy./Diag. 0.80E-01    1.5     0.01057085     -5417.2363127937 -2.08E-01
   217 Broy./Diag. 0.80E-01    1.5     0.01982445     -5417.6387921952 -4.02E-01
   218 Broy./Diag. 0.80E-01    1.5     0.01249552     -5416.4785725908  1.16E+00
   219 Broy./Diag. 0.80E-01    1.5     0.00307108     -5416.5762162839 -9.76E-02
   220 Broy./Diag. 0.80E-01    1.5     0.01699798     -5416.7853285258 -2.09E-01
   221 Broy./Diag. 0.80E-01    1.5     0.00176864     -5417.0997578743 -3.14E-01
   222 Broy./Diag. 0.80E-01    1.5     0.00366189     -5416.8793133989  2.20E-01
   223 Broy./Diag. 0.80E-01    1.5     0.03247156     -5416.5889774723  2.90E-01
   224 Broy./Diag. 0.80E-01    1.5     0.00484128     -5416.6632284011 -7.43E-02
   225 Broy./Diag. 0.80E-01    1.5     0.01081296     -5416.9801084095 -3.17E-01
   226 Broy./Diag. 0.80E-01    1.5     0.00674691     -5416.5279978355  4.52E-01
   227 Broy./Diag. 0.80E-01    1.5     0.02698732     -5416.6691355642 -1.41E-01
   228 Broy./Diag. 0.80E-01    1.5     0.02570447     -5415.5871396499  1.08E+00
   229 Broy./Diag. 0.80E-01    1.5     0.00642933     -5416.6088080867 -1.02E+00
   230 Broy./Diag. 0.80E-01    1.5     0.00876729     -5416.7397254182 -1.31E-01
   231 Broy./Diag. 0.80E-01    1.5     0.02101159     -5416.8266207883 -8.69E-02
   232 Broy./Diag. 0.80E-01    1.5     0.01076375     -5415.9357184681  8.91E-01
   233 Broy./Diag. 0.80E-01    1.5     0.00740563     -5416.3611663552 -4.25E-01
   234 Broy./Diag. 0.80E-01    1.5     0.00659282     -5416.3284272696  3.27E-02
   235 Broy./Diag. 0.80E-01    1.5     0.01508269     -5416.0706364682  2.58E-01
   236 Broy./Diag. 0.80E-01    1.5     0.00610188     -5415.9711565646  9.95E-02
   237 Broy./Diag. 0.80E-01    1.5     0.01176899     -5416.0842868700 -1.13E-01
   238 Broy./Diag. 0.80E-01    1.5     0.01335014     -5416.2050723850 -1.21E-01
   239 Broy./Diag. 0.80E-01    1.5     0.00560304     -5417.0414916341 -8.36E-01
   240 Broy./Diag. 0.80E-01    1.5     0.00562385     -5417.5600841878 -5.19E-01
   241 Broy./Diag. 0.80E-01    1.5     0.00944628     -5417.5439782275  1.61E-02
   242 Broy./Diag. 0.80E-01    1.5     0.00628796     -5417.6668662360 -1.23E-01
   243 Broy./Diag. 0.80E-01    1.5     0.00349009     -5417.0987006334  5.68E-01
   244 Broy./Diag. 0.80E-01    1.5     0.01559653     -5416.4845776046  6.14E-01
   245 Broy./Diag. 0.80E-01    1.5     0.00691971     -5415.9858405552  4.99E-01
   246 Broy./Diag. 0.80E-01    1.5     0.00636882     -5416.0675737987 -8.17E-02
   247 Broy./Diag. 0.80E-01    1.5     0.01418192     -5416.4021857844 -3.35E-01
   248 Broy./Diag. 0.80E-01    1.5     0.00693929     -5417.2731901682 -8.71E-01
   249 Broy./Diag. 0.80E-01    1.5     0.00462112     -5416.9975423122  2.76E-01
   250 Broy./Diag. 0.80E-01    1.5     0.00162110     -5417.6670819812 -6.70E-01
   251 Broy./Diag. 0.80E-01    1.5     0.00264078     -5417.7829581705 -1.16E-01
   252 Broy./Diag. 0.80E-01    1.5     0.01015502     -5417.8526376164 -6.97E-02
   253 Broy./Diag. 0.80E-01    1.5     0.01497330     -5417.7059315512  1.47E-01
   254 Broy./Diag. 0.80E-01    1.5     0.00323076     -5417.4823342841  2.24E-01
   255 Broy./Diag. 0.80E-01    1.5     0.01702951     -5417.4596765947  2.27E-02
   256 Broy./Diag. 0.80E-01    1.5     0.01578215     -5417.0584096123  4.01E-01
   257 Broy./Diag. 0.80E-01    1.5     0.00697961     -5416.8995071211  1.59E-01
   258 Broy./Diag. 0.80E-01    1.5     0.00296008     -5416.9390638052 -3.96E-02
   259 Broy./Diag. 0.80E-01    1.5     0.01146742     -5416.8728590759  6.62E-02
   260 Broy./Diag. 0.80E-01    1.5     0.00405948     -5416.5594336100  3.13E-01
   261 Broy./Diag. 0.80E-01    1.5     0.00401406     -5416.5792562407 -1.98E-02
   262 Broy./Diag. 0.80E-01    1.5     0.02228801     -5416.7902093824 -2.11E-01
   263 Broy./Diag. 0.80E-01    1.5     0.00379986     -5417.4580366029 -6.68E-01
   264 Broy./Diag. 0.80E-01    1.5     0.00579741     -5417.3259281134  1.32E-01
   265 Broy./Diag. 0.80E-01    1.5     0.00728252     -5417.4110490216 -8.51E-02
   266 Broy./Diag. 0.80E-01    1.5     0.01387877     -5417.3598783817  5.12E-02
   267 Broy./Diag. 0.80E-01    1.5     0.00187731     -5416.9865075186  3.73E-01
   268 Broy./Diag. 0.80E-01    1.5     0.01000469     -5417.1913949967 -2.05E-01
   269 Broy./Diag. 0.80E-01    1.5     0.00978148     -5417.0874906271  1.04E-01
   270 Broy./Diag. 0.80E-01    1.5     0.03066822     -5416.9264296531  1.61E-01
   271 Broy./Diag. 0.80E-01    1.5     0.00239117     -5417.4952335021 -5.69E-01
   272 Broy./Diag. 0.80E-01    1.5     0.01117915     -5417.5530094442 -5.78E-02
   273 Broy./Diag. 0.80E-01    1.5     0.00596783     -5417.4971847631  5.58E-02
   274 Broy./Diag. 0.80E-01    1.5     0.00728073     -5417.5503052562 -5.31E-02
   275 Broy./Diag. 0.80E-01    1.5     0.00142298     -5417.4393655177  1.11E-01
   276 Broy./Diag. 0.80E-01    1.5     0.00796705     -5417.4202354592  1.91E-02
   277 Broy./Diag. 0.80E-01    1.5     0.00087367     -5417.4195904013  6.45E-04
   278 Broy./Diag. 0.80E-01    1.5     0.00277865     -5417.3829296712  3.67E-02
   279 Broy./Diag. 0.80E-01    1.5     0.00684404     -5417.2833913964  9.95E-02
   280 Broy./Diag. 0.80E-01    1.5     0.00153216     -5417.1804611526  1.03E-01
   281 Broy./Diag. 0.80E-01    1.5     0.00272552     -5417.2759337677 -9.55E-02
   282 Broy./Diag. 0.80E-01    1.5     0.00698545     -5417.4376931713 -1.62E-01
   283 Broy./Diag. 0.80E-01    1.5     0.00421576     -5417.7536960389 -3.16E-01
   284 Broy./Diag. 0.80E-01    1.5     0.02221933     -5418.0269697413 -2.73E-01
   285 Broy./Diag. 0.80E-01    1.5     0.01019068     -5417.6327690146  3.94E-01
   286 Broy./Diag. 0.80E-01    1.5     0.00250138     -5417.3566323612  2.76E-01
   287 Broy./Diag. 0.80E-01    1.5     0.00573102     -5417.4201116710 -6.35E-02
   288 Broy./Diag. 0.80E-01    1.5     0.00516204     -5417.1890891277  2.31E-01
   289 Broy./Diag. 0.80E-01    1.5     0.00415418     -5417.5817281340 -3.93E-01
   290 Broy./Diag. 0.80E-01    1.5     0.00920270     -5417.8820974447 -3.00E-01
   291 Broy./Diag. 0.80E-01    1.5     0.00148416     -5418.2329277008 -3.51E-01
   292 Broy./Diag. 0.80E-01    1.5     0.00752802     -5418.2020389818  3.09E-02
   293 Broy./Diag. 0.80E-01    1.5     0.00461478     -5418.1745679467  2.75E-02
   294 Broy./Diag. 0.80E-01    1.5     0.00130650     -5418.1915374578 -1.70E-02
   295 Broy./Diag. 0.80E-01    1.5     0.00307583     -5418.1618600490  2.97E-02
   296 Broy./Diag. 0.80E-01    1.5     0.00192763     -5418.0906794065  7.12E-02
   297 Broy./Diag. 0.80E-01    1.5     0.00426325     -5418.1045237656 -1.38E-02
   298 Broy./Diag. 0.80E-01    1.5     0.00514355     -5418.1290173422 -2.45E-02
   299 Broy./Diag. 0.80E-01    1.5     0.00410260     -5417.9336538667  1.95E-01
   300 Broy./Diag. 0.80E-01    1.5     0.00578350     -5417.4774541828  4.56E-01
   301 Broy./Diag. 0.80E-01    1.5     0.00295751     -5417.8388106022 -3.61E-01
   302 Broy./Diag. 0.80E-01    1.5     0.00317707     -5418.0329256960 -1.94E-01
   303 Broy./Diag. 0.80E-01    1.5     0.00235249     -5417.9359431008  9.70E-02
   304 Broy./Diag. 0.80E-01    1.5     0.00318669     -5417.9224072584  1.35E-02
   305 Broy./Diag. 0.80E-01    1.5     0.00202613     -5417.9122813508  1.01E-02
   306 Broy./Diag. 0.80E-01    1.5     0.00415541     -5417.7252971168  1.87E-01
   307 Broy./Diag. 0.80E-01    1.5     0.00525110     -5417.5815145384  1.44E-01
   308 Broy./Diag. 0.80E-01    1.5     0.00131158     -5417.4823622496  9.92E-02
   309 Broy./Diag. 0.80E-01    1.5     0.00631386     -5417.5332420092 -5.09E-02
   310 Broy./Diag. 0.80E-01    1.5     0.00268215     -5417.4782729397  5.50E-02
   311 Broy./Diag. 0.80E-01    1.5     0.00507418     -5417.4974346100 -1.92E-02
   312 Broy./Diag. 0.80E-01    1.5     0.01148982     -5417.4693588252  2.81E-02
   313 Broy./Diag. 0.80E-01    1.5     0.00220405     -5417.1401090087  3.29E-01
   314 Broy./Diag. 0.80E-01    1.5     0.00664413     -5417.1072392997  3.29E-02
   315 Broy./Diag. 0.80E-01    1.5     0.00518095     -5417.1364753301 -2.92E-02
   316 Broy./Diag. 0.80E-01    1.5     0.02066912     -5417.1081139834  2.84E-02
   317 Broy./Diag. 0.80E-01    1.5     0.01270618     -5417.1366603861 -2.85E-02
   318 Broy./Diag. 0.80E-01    1.5     0.00141628     -5416.9886322799  1.48E-01
   319 Broy./Diag. 0.80E-01    1.5     0.00268962     -5417.0780161981 -8.94E-02
   320 Broy./Diag. 0.80E-01    1.5     0.00733442     -5417.1171891734 -3.92E-02
   321 Broy./Diag. 0.80E-01    1.5     0.00407589     -5417.6650285343 -5.48E-01
   322 Broy./Diag. 0.80E-01    1.5     0.00408312     -5417.8047280869 -1.40E-01
   323 Broy./Diag. 0.80E-01    1.5     0.00421046     -5417.6391327537  1.66E-01
   324 Broy./Diag. 0.80E-01    1.5     0.00616515     -5417.7371355876 -9.80E-02
   325 Broy./Diag. 0.80E-01    1.5     0.01006019     -5417.7504782622 -1.33E-02
   326 Broy./Diag. 0.80E-01    1.5     0.00482011     -5418.0939636869 -3.43E-01
   327 Broy./Diag. 0.80E-01    1.5     0.00917618     -5418.3265751420 -2.33E-01
   328 Broy./Diag. 0.80E-01    1.5     0.00636846     -5418.2123476761  1.14E-01
   329 Broy./Diag. 0.80E-01    1.5     0.00290680     -5418.1954310783  1.69E-02
   330 Broy./Diag. 0.80E-01    1.5     0.00226690     -5418.2067439583 -1.13E-02
   331 Broy./Diag. 0.80E-01    1.5     0.00324595     -5417.8824478342  3.24E-01
   332 Broy./Diag. 0.80E-01    1.5     0.00324044     -5417.7628928322  1.20E-01
   333 Broy./Diag. 0.80E-01    1.5     0.00784304     -5417.7398230589  2.31E-02
   334 Broy./Diag. 0.80E-01    1.5     0.00247638     -5417.0793063542  6.61E-01
   335 Broy./Diag. 0.80E-01    1.5     0.00884219     -5416.9962388509  8.31E-02
   336 Broy./Diag. 0.80E-01    1.5     0.00779412     -5417.3550851487 -3.59E-01
   337 Broy./Diag. 0.80E-01    1.5     0.00378823     -5416.7260081308  6.29E-01
   338 Broy./Diag. 0.80E-01    1.5     0.00369750     -5416.3009951632  4.25E-01
   339 Broy./Diag. 0.80E-01    1.5     0.00394257     -5417.3680504092 -1.07E+00
   340 Broy./Diag. 0.80E-01    1.5     0.00978901     -5417.8132171056 -4.45E-01
   341 Broy./Diag. 0.80E-01    1.5     0.00342494     -5417.6980787057  1.15E-01
   342 Broy./Diag. 0.80E-01    1.5     0.00439580     -5417.8745148628 -1.76E-01
   343 Broy./Diag. 0.80E-01    1.5     0.00189926     -5417.8871479047 -1.26E-02
   344 Broy./Diag. 0.80E-01    1.5     0.00858025     -5417.8913778226 -4.23E-03
   345 Broy./Diag. 0.80E-01    1.5     0.00605542     -5418.1666556997 -2.75E-01
   346 Broy./Diag. 0.80E-01    1.5     0.00524078     -5418.0473049929  1.19E-01
   347 Broy./Diag. 0.80E-01    1.5     0.01503684     -5417.8629877374  1.84E-01
   348 Broy./Diag. 0.80E-01    1.5     0.02813962     -5418.0513206467 -1.88E-01
   349 Broy./Diag. 0.80E-01    1.5     0.02753403     -5418.1711366358 -1.20E-01
   350 Broy./Diag. 0.80E-01    1.5     0.01152512     -5417.9613191486  2.10E-01
   351 Broy./Diag. 0.80E-01    1.5     0.00662345     -5417.8405013301  1.21E-01
   352 Broy./Diag. 0.80E-01    1.5     0.01015445     -5417.8492799181 -8.78E-03
   353 Broy./Diag. 0.80E-01    1.5     0.00145251     -5417.8837261587 -3.44E-02
   354 Broy./Diag. 0.80E-01    1.5     0.00169529     -5417.8154545719  6.83E-02
   355 Broy./Diag. 0.80E-01    1.5     0.01530274     -5417.9121939536 -9.67E-02
   356 Broy./Diag. 0.80E-01    1.5     0.01414745     -5417.9638993302 -5.17E-02
   357 Broy./Diag. 0.80E-01    1.5     0.00442153     -5418.0543233244 -9.04E-02
   358 Broy./Diag. 0.80E-01    1.5     0.00750570     -5417.9322479682  1.22E-01
   359 Broy./Diag. 0.80E-01    1.5     0.02337563     -5417.8063362967  1.26E-01
   360 Broy./Diag. 0.80E-01    1.5     0.01064681     -5418.1147465939 -3.08E-01
   361 Broy./Diag. 0.80E-01    1.5     0.00450021     -5418.3521673725 -2.37E-01
   362 Broy./Diag. 0.80E-01    1.5     0.02682671     -5418.0113928978  3.41E-01
   363 Broy./Diag. 0.80E-01    1.5     0.02672778     -5418.3161676332 -3.05E-01
   364 Broy./Diag. 0.80E-01    1.5     0.04460681     -5418.1688588734  1.47E-01
   365 Broy./Diag. 0.80E-01    1.5     0.06606149     -5418.7267749025 -5.58E-01
   366 Broy./Diag. 0.80E-01    1.5     0.01165957     -5418.4501960476  2.77E-01
