 DBCSR| CPU Multiplication driver                                           XSMM (U)
 DBCSR| Multrec recursion limit                                              512 (U)
 DBCSR| Multiplication stack size                                           1000 (D)
 DBCSR| Maximum elements for images                                    UNLIMITED (U)
 DBCSR| Multiplicative factor virtual images                                   1 (U)
 DBCSR| Use multiplication densification                                       T (D)
 DBCSR| Multiplication size stacks                                             3 (U)
 DBCSR| Use memory pool for CPU allocation                                     F (U)
 DBCSR| Number of 3D layers                                               SINGLE (U)
 DBCSR| Use MPI memory allocation                                              F (U)
 DBCSR| Use RMA algorithm                                                      F (U)
 DBCSR| Use Communication thread                                               T (U)
 DBCSR| Communication thread load                                             87 (D)
 DBCSR| MPI: My process id                                                     0
 DBCSR| MPI: Number of processes                                             128
 DBCSR| OMP: Current number of threads                                         1
 DBCSR| OMP: Max number of threads                                             1
 DBCSR| Split modifier for TAS multiplication algorithm                  1.0E+00 (U)


  **** **** ******  **  PROGRAM STARTED AT               2023-02-14 15:48:49.557
 ***** ** ***  *** **   PROGRAM STARTED ON                             nid001648
 **    ****   ******    PROGRAM STARTED BY                                cahart
 ***** **    ** ** **   PROGRAM PROCESS ID                                150921
  **** **  *******  **  PROGRAM STARTED IN /mnt/lustre/a2fs-work2/work/e05/e05/c
                                           ahart/postdoc/masters/ni/archer2/slab
                                           /optimise/alpha-beta/scf_1e-4_mos-100
                                           0_temp-2000_spin-0.7-0.5_periodic-xyz
                                           /search/8.0E-02_4.0E-02

 CP2K| version string:                 CP2K version 2023.1 (Development Version)
 CP2K| source code revision number:                                  git:964cd58
 CP2K| cp2kflags: omp libint fftw3 libxc elpa parallel scalapack xsmm plumed2 mk
 CP2K|            l
 CP2K| is freely available from                            https://www.cp2k.org/
 CP2K| Program compiled at                          Mon 13 Feb 17:05:14 GMT 2023
 CP2K| Program compiled on                                                  ln01
 CP2K| Program compiled for                                              ARCHER2
 CP2K| Data directory path    /work/e05/e05/cahart/cp2k/cp2k-2023.1/cp2k-2023.1-
 CP2K| Input file name                                                  cp2k.inp

 GLOBAL| Force Environment number                                              1
 GLOBAL| Basis set file name                                        BASIS_MOLOPT
 GLOBAL| Potential file name                                      GTH_POTENTIALS
 GLOBAL| MM Potential file name                                     MM_POTENTIAL
 GLOBAL| Coordinate file name                                      __STD_INPUT__
 GLOBAL| Method name                                                        CP2K
 GLOBAL| Project name                                                    Ni_bulk
 GLOBAL| Run type                                                         ENERGY
 GLOBAL| FFT library                                                       FFTW3
 GLOBAL| Diagonalization library                                            ELPA
 GLOBAL| DGEMM library                                                      BLAS
 GLOBAL| Minimum number of eigenvectors for ELPA usage                        16
 GLOBAL| Orthonormality check for eigenvectors                          DISABLED
 GLOBAL| Matrix multiplication library                                 ScaLAPACK
 GLOBAL| All-to-all communication in single precision                          F
 GLOBAL| FFTs using library dependent lengths                                  F
 GLOBAL| Grid backend                                                       AUTO
 GLOBAL| Global print level                                               MEDIUM
 GLOBAL| MPI I/O enabled                                                       T
 GLOBAL| Total number of message passing processes                           128
 GLOBAL| Number of threads for this process                                    1
 GLOBAL| This output is from process                                           0
 GLOBAL| Stack size for threads created by OpenMP (OMP_STACKSIZE)        default
 GLOBAL| CPU model name                          AMD EPYC 7742 64-Core Processor
 GLOBAL| CPUID                                                              1002

 MEMORY| system memory details [Kb]
 MEMORY|                        rank 0           min           max       average
 MEMORY| MemTotal            263528084     263528084     263528084     263528084
 MEMORY| MemFree             239186348     239186348     239186348     239186348
 MEMORY| Buffers                 25232         25232         25232         25232
 MEMORY| Cached                 634320        634320        634320        634320
 MEMORY| Slab                  1539616       1539616       1539616       1539616
 MEMORY| SReclaimable           110368        110368        110368        110368
 MEMORY| MemLikelyFree       239956268     239956268     239956268     239956268


 *** Fundamental physical constants (SI units) ***

 *** Literature: B. J. Mohr and B. N. Taylor,
 ***             CODATA recommended values of the fundamental physical
 ***             constants: 2006, Web Version 5.1
 ***             http://physics.nist.gov/constants

 Speed of light in vacuum [m/s]                             2.99792458000000E+08
 Magnetic constant or permeability of vacuum [N/A**2]       1.25663706143592E-06
 Electric constant or permittivity of vacuum [F/m]          8.85418781762039E-12
 Planck constant (h) [J*s]                                  6.62606896000000E-34
 Planck constant (h-bar) [J*s]                              1.05457162825177E-34
 Elementary charge [C]                                      1.60217648700000E-19
 Electron mass [kg]                                         9.10938215000000E-31
 Electron g factor [ ]                                     -2.00231930436220E+00
 Proton mass [kg]                                           1.67262163700000E-27
 Fine-structure constant                                    7.29735253760000E-03
 Rydberg constant [1/m]                                     1.09737315685270E+07
 Avogadro constant [1/mol]                                  6.02214179000000E+23
 Boltzmann constant [J/K]                                   1.38065040000000E-23
 Atomic mass unit [kg]                                      1.66053878200000E-27
 Bohr radius [m]                                            5.29177208590000E-11

 *** Conversion factors ***

 [u] -> [a.u.]                                              1.82288848426455E+03
 [Angstrom] -> [Bohr] = [a.u.]                              1.88972613288564E+00
 [a.u.] = [Bohr] -> [Angstrom]                              5.29177208590000E-01
 [a.u.] -> [s]                                              2.41888432650478E-17
 [a.u.] -> [fs]                                             2.41888432650478E-02
 [a.u.] -> [J]                                              4.35974393937059E-18
 [a.u.] -> [N]                                              8.23872205491840E-08
 [a.u.] -> [K]                                              3.15774647902944E+05
 [a.u.] -> [kJ/mol]                                         2.62549961709828E+03
 [a.u.] -> [kcal/mol]                                       6.27509468713739E+02
 [a.u.] -> [Pa]                                             2.94210107994716E+13
 [a.u.] -> [bar]                                            2.94210107994716E+08
 [a.u.] -> [atm]                                            2.90362800883016E+08
 [a.u.] -> [eV]                                             2.72113838565563E+01
 [a.u.] -> [Hz]                                             6.57968392072181E+15
 [a.u.] -> [1/cm] (wave numbers)                            2.19474631370540E+05
 [a.u./Bohr**2] -> [1/cm]                                   5.14048714338585E+03
 

 CELL_TOP| Volume [angstrom^3]:                                       983.249569
 CELL_TOP| Vector a [angstrom     7.012     0.000     0.000   |a| =     7.011596
 CELL_TOP| Vector b [angstrom     0.000     7.012     0.000   |b| =     7.011596
 CELL_TOP| Vector c [angstrom     0.000     0.000    20.000   |c| =    20.000000
 CELL_TOP| Angle (b,c), alpha [degree]:                                90.000000
 CELL_TOP| Angle (a,c), beta  [degree]:                                90.000000
 CELL_TOP| Angle (a,b), gamma [degree]:                                90.000000
 CELL_TOP| Numerically orthorhombic:                                         YES
 CELL_TOP| Periodicity                                                       XYZ

 GENERATE|  Preliminary Number of Bonds generated:                             0
 GENERATE|  Achieved consistency in connectivity generation.

 CELL| Volume [angstrom^3]:                                           983.249569
 CELL| Vector a [angstrom]:       7.012     0.000     0.000   |a| =     7.011596
 CELL| Vector b [angstrom]:       0.000     7.012     0.000   |b| =     7.011596
 CELL| Vector c [angstrom]:       0.000     0.000    20.000   |c| =    20.000000
 CELL| Angle (b,c), alpha [degree]:                                    90.000000
 CELL| Angle (a,c), beta  [degree]:                                    90.000000
 CELL| Angle (a,b), gamma [degree]:                                    90.000000
 CELL| Numerically orthorhombic:                                             YES
 CELL| Periodicity                                                           XYZ

 CELL_REF| Volume [angstrom^3]:                                       983.249569
 CELL_REF| Vector a [angstrom     7.012     0.000     0.000   |a| =     7.011596
 CELL_REF| Vector b [angstrom     0.000     7.012     0.000   |b| =     7.011596
 CELL_REF| Vector c [angstrom     0.000     0.000    20.000   |c| =    20.000000
 CELL_REF| Angle (b,c), alpha [degree]:                                90.000000
 CELL_REF| Angle (a,c), beta  [degree]:                                90.000000
 CELL_REF| Angle (a,b), gamma [degree]:                                90.000000
 CELL_REF| Numerically orthorhombic:                                         YES
 CELL_REF| Periodicity                                                       XYZ

 *** WARNING in cryssym.F:165 :: Symmetry library SPGLIB not available ***


 *******************************************************************************
                                    Kpoints
 *******************************************************************************
 BRILLOUIN| K-point scheme                                        Monkhorst-Pack
 BRILLOUIN| K-Point grid                                             4    4    1
 BRILLOUIN| Accuracy in Symmetry determination                      0.100000E-05
 BRILLOUIN| K-Point point group symmetrization                               OFF
 BRILLOUIN| Wavefunction type                                            COMPLEX
 BRILLOUIN| List of Kpoints [2 Pi/Bohr]                                        8
 BRILLOUIN| Number           Weight            X              Y              Z
 BRILLOUIN|     1           0.12500       -0.37500       -0.37500        0.00000
 BRILLOUIN|     2           0.12500       -0.37500       -0.12500        0.00000
 BRILLOUIN|     3           0.12500       -0.37500        0.12500        0.00000
 BRILLOUIN|     4           0.12500       -0.37500        0.37500        0.00000
 BRILLOUIN|     5           0.12500       -0.12500       -0.37500        0.00000
 BRILLOUIN|     6           0.12500       -0.12500       -0.12500        0.00000
 BRILLOUIN|     7           0.12500       -0.12500        0.12500        0.00000
 BRILLOUIN|     8           0.12500       -0.12500        0.37500        0.00000
 *******************************************************************************

 *******************************************************************************
 *******************************************************************************
 **                                                                           **
 **     #####                         ##              ##                      **
 **    ##   ##            ##          ##              ##                      **
 **   ##     ##                       ##            ######                    **
 **   ##     ##  ##   ##  ##   #####  ##  ##   ####   ##    #####    #####    **
 **   ##     ##  ##   ##  ##  ##      ## ##   ##      ##   ##   ##  ##   ##   **
 **   ##  ## ##  ##   ##  ##  ##      ####     ###    ##   ######   ######    **
 **    ##  ###   ##   ##  ##  ##      ## ##      ##   ##   ##       ##        **
 **     #######   #####   ##   #####  ##  ##  ####    ##    #####   ##        **
 **           ##                                                    ##        **
 **                                                                           **
 **                                                ... make the atoms dance   **
 **                                                                           **
 **            Copyright (C) by CP2K developers group (2000-2023)             **
 **                      J. Chem. Phys. 152, 194103 (2020)                    **
 **                                                                           **
 *******************************************************************************

 *** WARNING in qs_environment.F:1456 :: Number of electrons will be ***
 *** overwritten by NELEC_ALPHA and NELEC_BETA, multiplicity will be ***
 *** ignored.                                                        ***

 Number of electrons should be                                               576
 Sum of NELEC_ALPHA and NELEC_BETA is                                    576.000

 *** WARNING in qs_environment.F:1488 :: NELEC_ALPHA is not an integer, ***
 *** many features will not be supported.                               ***


 *** WARNING in qs_environment.F:1500 :: NELEC_BETA is not an integer, ***
 *** many features will not be supported.                              ***


 *** WARNING in qs_environment.F:1532 :: More ADDED_MOs requested for beta ***
 *** spin than available.                                                  ***


 *** WARNING in qs_environment.F:1548 :: More added MOs requested than     ***
 *** available. The full set of unoccupied MOs will be used. Use           ***
 *** 'ADDED_MOS -1' to always use all available MOs and to get rid of this ***
 *** warning.                                                              ***


 DFT| Spin unrestricted (spin-polarized) Kohn-Sham calculation               UKS
 DFT| Multiplicity                                                             1
 DFT| Number of spin states                                                    2
 DFT| Charge                                                                   0
 DFT| Self-interaction correction (SIC)                                       NO
 DFT| Cutoffs: density                                              1.000000E-10
 DFT|          gradient                                             1.000000E-10
 DFT|          tau                                                  1.000000E-10
 DFT|          cutoff_smoothing_range                               0.000000E+00
 DFT| XC density smoothing                                                  NONE
 DFT| XC derivatives                                                          PW

 FUNCTIONAL| PBE:
 FUNCTIONAL| J.P.Perdew, K.Burke, M.Ernzerhof, Phys. Rev. Letter, vol. 77, n 18,
 FUNCTIONAL|  pp. 3865-3868, (1996){spin polarized}                             

 vdW POTENTIAL|                                                   Pair Potential
 vdW POTENTIAL|          DFT-D3 (Version 3.1)
 vdW POTENTIAL|          Potential Form: S. Grimme et al, JCP 132: 154104 (2010)
 vdW POTENTIAL|          Zero Damping
 vdW POTENTIAL|          Cutoff Radius [Bohr]:                             20.00
 vdW POTENTIAL|          s6 Scaling Factor:                               1.0000
 vdW POTENTIAL|          sr6 Scaling Factor:                              1.2170
 vdW POTENTIAL|          s8 Scaling Factor:                               0.7220
 vdW POTENTIAL|          Cutoff for CN calculation:                   0.1000E-05

 QS| Method:                                                                 GPW
 QS| Density plane wave grid type                        NON-SPHERICAL FULLSPACE
 QS| Number of grid levels:                                                    5
 QS| Density cutoff [a.u.]:                                                300.0
 QS| Multi grid cutoff [a.u.]: 1) grid level                               300.0
 QS|                           2) grid level                               100.0
 QS|                           3) grid level                                33.3
 QS|                           4) grid level                                11.1
 QS|                           5) grid level                                 3.7
 QS| Grid level progression factor:                                          3.0
 QS| Relative density cutoff [a.u.]:                                        30.0
 QS| Interaction thresholds: eps_pgf_orb:                                1.0E-06
 QS|                         eps_filter_matrix:                          0.0E+00
 QS|                         eps_core_charge:                            1.0E-14
 QS|                         eps_rho_gspace:                             1.0E-12
 QS|                         eps_rho_rspace:                             1.0E-12
 QS|                         eps_gvg_rspace:                             1.0E-06
 QS|                         eps_ppl:                                    1.0E-02
 QS|                         eps_ppnl:                                   1.0E-08


 ATOMIC KIND INFORMATION

  1. Atomic kind: Ni_i                                  Number of atoms:      16

     Orbital Basis Set                                        DZVP-MOLOPT-SR-GTH

       Number of orbital shell sets:                                           1
       Number of orbital shells:                                               8
       Number of primitive Cartesian functions:                                6
       Number of Cartesian basis functions:                                   31
       Number of spherical basis functions:                                   26
       Norm type:                                                              2

       Normalised Cartesian orbitals:

                        Set   Shell   Orbital            Exponent    Coefficient

                          1       1    2s               10.077428      -0.684558
                                                         5.847736      -0.844524
                                                         2.494033       1.088856
                                                         0.988355       0.395503
                                                         0.344978       0.010224
                                                         0.099466      -0.003250

                          1       2    3s               10.077428       0.096747
                                                         5.847736       0.162504
                                                         2.494033      -0.297192
                                                         0.988355      -0.319752
                                                         0.344978       0.088318
                                                         0.099466       0.118587

                          1       3    4s               10.077428       0.036437
                                                         5.847736      -0.381480
                                                         2.494033       0.003759
                                                         0.988355      -1.048256
                                                         0.344978       0.855825
                                                         0.099466      -0.176350

                          1       4    3px              10.077428      -3.133913
                                                         5.847736       3.027656
                                                         2.494033       2.353227
                                                         0.988355       0.554184
                                                         0.344978       0.019462
                                                         0.099466      -0.000291
                          1       4    3py              10.077428      -3.133913
                                                         5.847736       3.027656
                                                         2.494033       2.353227
                                                         0.988355       0.554184
                                                         0.344978       0.019462
                                                         0.099466      -0.000291
                          1       4    3pz              10.077428      -3.133913
                                                         5.847736       3.027656
                                                         2.494033       2.353227
                                                         0.988355       0.554184
                                                         0.344978       0.019462
                                                         0.099466      -0.000291

                          1       5    4px              10.077428      -0.112729
                                                         5.847736      -0.114008
                                                         2.494033      -0.347303
                                                         0.988355      -0.110323
                                                         0.344978       0.154096
                                                         0.099466       0.058386
                          1       5    4py              10.077428      -0.112729
                                                         5.847736      -0.114008
                                                         2.494033      -0.347303
                                                         0.988355      -0.110323
                                                         0.344978       0.154096
                                                         0.099466       0.058386
                          1       5    4pz              10.077428      -0.112729
                                                         5.847736      -0.114008
                                                         2.494033      -0.347303
                                                         0.988355      -0.110323
                                                         0.344978       0.154096
                                                         0.099466       0.058386

                          1       6    4dx2             10.077428       8.232726
                                                         5.847736       9.105758
                                                         2.494033       2.849835
                                                         0.988355       0.554319
                                                         0.344978       0.067245
                                                         0.099466       0.001940
                          1       6    4dxy             10.077428      14.259500
                                                         5.847736      15.771636
                                                         2.494033       4.936060
                                                         0.988355       0.960109
                                                         0.344978       0.116472
                                                         0.099466       0.003360
                          1       6    4dxz             10.077428      14.259500
                                                         5.847736      15.771636
                                                         2.494033       4.936060
                                                         0.988355       0.960109
                                                         0.344978       0.116472
                                                         0.099466       0.003360
                          1       6    4dy2             10.077428       8.232726
                                                         5.847736       9.105758
                                                         2.494033       2.849835
                                                         0.988355       0.554319
                                                         0.344978       0.067245
                                                         0.099466       0.001940
                          1       6    4dyz             10.077428      14.259500
                                                         5.847736      15.771636
                                                         2.494033       4.936060
                                                         0.988355       0.960109
                                                         0.344978       0.116472
                                                         0.099466       0.003360
                          1       6    4dz2             10.077428       8.232726
                                                         5.847736       9.105758
                                                         2.494033       2.849835
                                                         0.988355       0.554319
                                                         0.344978       0.067245
                                                         0.099466       0.001940

                          1       7    5dx2             10.077428      -2.715373
                                                         5.847736      -4.020640
                                                         2.494033      -1.397569
                                                         0.988355      -0.076143
                                                         0.344978       0.033435
                                                         0.099466       0.026032
                          1       7    5dxy             10.077428      -4.703164
                                                         5.847736      -6.963952
                                                         2.494033      -2.420661
                                                         0.988355      -0.131883
                                                         0.344978       0.057911
                                                         0.099466       0.045088
                          1       7    5dxz             10.077428      -4.703164
                                                         5.847736      -6.963952
                                                         2.494033      -2.420661
                                                         0.988355      -0.131883
                                                         0.344978       0.057911
                                                         0.099466       0.045088
                          1       7    5dy2             10.077428      -2.715373
                                                         5.847736      -4.020640
                                                         2.494033      -1.397569
                                                         0.988355      -0.076143
                                                         0.344978       0.033435
                                                         0.099466       0.026032
                          1       7    5dyz             10.077428      -4.703164
                                                         5.847736      -6.963952
                                                         2.494033      -2.420661
                                                         0.988355      -0.131883
                                                         0.344978       0.057911
                                                         0.099466       0.045088
                          1       7    5dz2             10.077428      -2.715373
                                                         5.847736      -4.020640
                                                         2.494033      -1.397569
                                                         0.988355      -0.076143
                                                         0.344978       0.033435
                                                         0.099466       0.026032

                          1       8    5fx3             10.077428      -0.467694
                                                         5.847736       0.618100
                                                         2.494033       0.066069
                                                         0.988355       0.262898
                                                         0.344978       0.004720
                                                         0.099466       0.007748
                          1       8    5fx2y            10.077428      -1.045795
                                                         5.847736       1.382114
                                                         2.494033       0.147734
                                                         0.988355       0.587859
                                                         0.344978       0.010555
                                                         0.099466       0.017325
                          1       8    5fx2z            10.077428      -1.045795
                                                         5.847736       1.382114
                                                         2.494033       0.147734
                                                         0.988355       0.587859
                                                         0.344978       0.010555
                                                         0.099466       0.017325
                          1       8    5fxy2            10.077428      -1.045795
                                                         5.847736       1.382114
                                                         2.494033       0.147734
                                                         0.988355       0.587859
                                                         0.344978       0.010555
                                                         0.099466       0.017325
                          1       8    5fxyz            10.077428      -1.811371
                                                         5.847736       2.393892
                                                         2.494033       0.255883
                                                         0.988355       1.018201
                                                         0.344978       0.018282
                                                         0.099466       0.030008
                          1       8    5fxz2            10.077428      -1.045795
                                                         5.847736       1.382114
                                                         2.494033       0.147734
                                                         0.988355       0.587859
                                                         0.344978       0.010555
                                                         0.099466       0.017325
                          1       8    5fy3             10.077428      -0.467694
                                                         5.847736       0.618100
                                                         2.494033       0.066069
                                                         0.988355       0.262898
                                                         0.344978       0.004720
                                                         0.099466       0.007748
                          1       8    5fy2z            10.077428      -1.045795
                                                         5.847736       1.382114
                                                         2.494033       0.147734
                                                         0.988355       0.587859
                                                         0.344978       0.010555
                                                         0.099466       0.017325
                          1       8    5fyz2            10.077428      -1.045795
                                                         5.847736       1.382114
                                                         2.494033       0.147734
                                                         0.988355       0.587859
                                                         0.344978       0.010555
                                                         0.099466       0.017325
                          1       8    5fz3             10.077428      -0.467694
                                                         5.847736       0.618100
                                                         2.494033       0.066069
                                                         0.988355       0.262898
                                                         0.344978       0.004720
                                                         0.099466       0.007748

       Atomic covalent radius [Angstrom]:                                  1.150

       Atomic van der Waals radius [Angstrom]:                             1.630

     GTH Potential information for                                   GTH-PBE-q18

       Description:                       Goedecker-Teter-Hutter pseudopotential
                                           Goedecker et al., PRB 54, 1703 (1996)
                                          Hartwigsen et al., PRB 58, 3641 (1998)
                                                      Krack, TCA 114, 145 (2005)

       Gaussian exponent of the core charge distribution:               4.081633
       Electronic configuration (s p d ...):                           4   6   8

       Parameters of the local part of the GTH pseudopotential:

                          rloc        C1          C2          C3          C4
                        0.350000    2.102166    0.648484

       Parameters of the non-local part of the GTH pseudopotential:

                   l      r(l)      h(i,j,l)

                   0    0.261295    0.622658    9.970227
                                    9.970227  -12.871507
                   1    0.224253  -11.142708   12.429566
                                   12.429566  -14.706861
                   2    0.215348  -12.628146

  2. Atomic kind: Ni_b                                  Number of atoms:      16

     Orbital Basis Set                                        DZVP-MOLOPT-SR-GTH

       Number of orbital shell sets:                                           1
       Number of orbital shells:                                               8
       Number of primitive Cartesian functions:                                6
       Number of Cartesian basis functions:                                   31
       Number of spherical basis functions:                                   26
       Norm type:                                                              2

       Normalised Cartesian orbitals:

                        Set   Shell   Orbital            Exponent    Coefficient

                          1       1    2s               10.077428      -0.684558
                                                         5.847736      -0.844524
                                                         2.494033       1.088856
                                                         0.988355       0.395503
                                                         0.344978       0.010224
                                                         0.099466      -0.003250

                          1       2    3s               10.077428       0.096747
                                                         5.847736       0.162504
                                                         2.494033      -0.297192
                                                         0.988355      -0.319752
                                                         0.344978       0.088318
                                                         0.099466       0.118587

                          1       3    4s               10.077428       0.036437
                                                         5.847736      -0.381480
                                                         2.494033       0.003759
                                                         0.988355      -1.048256
                                                         0.344978       0.855825
                                                         0.099466      -0.176350

                          1       4    3px              10.077428      -3.133913
                                                         5.847736       3.027656
                                                         2.494033       2.353227
                                                         0.988355       0.554184
                                                         0.344978       0.019462
                                                         0.099466      -0.000291
                          1       4    3py              10.077428      -3.133913
                                                         5.847736       3.027656
                                                         2.494033       2.353227
                                                         0.988355       0.554184
                                                         0.344978       0.019462
                                                         0.099466      -0.000291
                          1       4    3pz              10.077428      -3.133913
                                                         5.847736       3.027656
                                                         2.494033       2.353227
                                                         0.988355       0.554184
                                                         0.344978       0.019462
                                                         0.099466      -0.000291

                          1       5    4px              10.077428      -0.112729
                                                         5.847736      -0.114008
                                                         2.494033      -0.347303
                                                         0.988355      -0.110323
                                                         0.344978       0.154096
                                                         0.099466       0.058386
                          1       5    4py              10.077428      -0.112729
                                                         5.847736      -0.114008
                                                         2.494033      -0.347303
                                                         0.988355      -0.110323
                                                         0.344978       0.154096
                                                         0.099466       0.058386
                          1       5    4pz              10.077428      -0.112729
                                                         5.847736      -0.114008
                                                         2.494033      -0.347303
                                                         0.988355      -0.110323
                                                         0.344978       0.154096
                                                         0.099466       0.058386

                          1       6    4dx2             10.077428       8.232726
                                                         5.847736       9.105758
                                                         2.494033       2.849835
                                                         0.988355       0.554319
                                                         0.344978       0.067245
                                                         0.099466       0.001940
                          1       6    4dxy             10.077428      14.259500
                                                         5.847736      15.771636
                                                         2.494033       4.936060
                                                         0.988355       0.960109
                                                         0.344978       0.116472
                                                         0.099466       0.003360
                          1       6    4dxz             10.077428      14.259500
                                                         5.847736      15.771636
                                                         2.494033       4.936060
                                                         0.988355       0.960109
                                                         0.344978       0.116472
                                                         0.099466       0.003360
                          1       6    4dy2             10.077428       8.232726
                                                         5.847736       9.105758
                                                         2.494033       2.849835
                                                         0.988355       0.554319
                                                         0.344978       0.067245
                                                         0.099466       0.001940
                          1       6    4dyz             10.077428      14.259500
                                                         5.847736      15.771636
                                                         2.494033       4.936060
                                                         0.988355       0.960109
                                                         0.344978       0.116472
                                                         0.099466       0.003360
                          1       6    4dz2             10.077428       8.232726
                                                         5.847736       9.105758
                                                         2.494033       2.849835
                                                         0.988355       0.554319
                                                         0.344978       0.067245
                                                         0.099466       0.001940

                          1       7    5dx2             10.077428      -2.715373
                                                         5.847736      -4.020640
                                                         2.494033      -1.397569
                                                         0.988355      -0.076143
                                                         0.344978       0.033435
                                                         0.099466       0.026032
                          1       7    5dxy             10.077428      -4.703164
                                                         5.847736      -6.963952
                                                         2.494033      -2.420661
                                                         0.988355      -0.131883
                                                         0.344978       0.057911
                                                         0.099466       0.045088
                          1       7    5dxz             10.077428      -4.703164
                                                         5.847736      -6.963952
                                                         2.494033      -2.420661
                                                         0.988355      -0.131883
                                                         0.344978       0.057911
                                                         0.099466       0.045088
                          1       7    5dy2             10.077428      -2.715373
                                                         5.847736      -4.020640
                                                         2.494033      -1.397569
                                                         0.988355      -0.076143
                                                         0.344978       0.033435
                                                         0.099466       0.026032
                          1       7    5dyz             10.077428      -4.703164
                                                         5.847736      -6.963952
                                                         2.494033      -2.420661
                                                         0.988355      -0.131883
                                                         0.344978       0.057911
                                                         0.099466       0.045088
                          1       7    5dz2             10.077428      -2.715373
                                                         5.847736      -4.020640
                                                         2.494033      -1.397569
                                                         0.988355      -0.076143
                                                         0.344978       0.033435
                                                         0.099466       0.026032

                          1       8    5fx3             10.077428      -0.467694
                                                         5.847736       0.618100
                                                         2.494033       0.066069
                                                         0.988355       0.262898
                                                         0.344978       0.004720
                                                         0.099466       0.007748
                          1       8    5fx2y            10.077428      -1.045795
                                                         5.847736       1.382114
                                                         2.494033       0.147734
                                                         0.988355       0.587859
                                                         0.344978       0.010555
                                                         0.099466       0.017325
                          1       8    5fx2z            10.077428      -1.045795
                                                         5.847736       1.382114
                                                         2.494033       0.147734
                                                         0.988355       0.587859
                                                         0.344978       0.010555
                                                         0.099466       0.017325
                          1       8    5fxy2            10.077428      -1.045795
                                                         5.847736       1.382114
                                                         2.494033       0.147734
                                                         0.988355       0.587859
                                                         0.344978       0.010555
                                                         0.099466       0.017325
                          1       8    5fxyz            10.077428      -1.811371
                                                         5.847736       2.393892
                                                         2.494033       0.255883
                                                         0.988355       1.018201
                                                         0.344978       0.018282
                                                         0.099466       0.030008
                          1       8    5fxz2            10.077428      -1.045795
                                                         5.847736       1.382114
                                                         2.494033       0.147734
                                                         0.988355       0.587859
                                                         0.344978       0.010555
                                                         0.099466       0.017325
                          1       8    5fy3             10.077428      -0.467694
                                                         5.847736       0.618100
                                                         2.494033       0.066069
                                                         0.988355       0.262898
                                                         0.344978       0.004720
                                                         0.099466       0.007748
                          1       8    5fy2z            10.077428      -1.045795
                                                         5.847736       1.382114
                                                         2.494033       0.147734
                                                         0.988355       0.587859
                                                         0.344978       0.010555
                                                         0.099466       0.017325
                          1       8    5fyz2            10.077428      -1.045795
                                                         5.847736       1.382114
                                                         2.494033       0.147734
                                                         0.988355       0.587859
                                                         0.344978       0.010555
                                                         0.099466       0.017325
                          1       8    5fz3             10.077428      -0.467694
                                                         5.847736       0.618100
                                                         2.494033       0.066069
                                                         0.988355       0.262898
                                                         0.344978       0.004720
                                                         0.099466       0.007748

       Atomic covalent radius [Angstrom]:                                  1.150

       Atomic van der Waals radius [Angstrom]:                             1.630

     GTH Potential information for                                   GTH-PBE-q18

       Description:                       Goedecker-Teter-Hutter pseudopotential
                                           Goedecker et al., PRB 54, 1703 (1996)
                                          Hartwigsen et al., PRB 58, 3641 (1998)
                                                      Krack, TCA 114, 145 (2005)

       Gaussian exponent of the core charge distribution:               4.081633
       Electronic configuration (s p d ...):                           4   6   8

       Parameters of the local part of the GTH pseudopotential:

                          rloc        C1          C2          C3          C4
                        0.350000    2.102166    0.648484

       Parameters of the non-local part of the GTH pseudopotential:

                   l      r(l)      h(i,j,l)

                   0    0.261295    0.622658    9.970227
                                    9.970227  -12.871507
                   1    0.224253  -11.142708   12.429566
                                   12.429566  -14.706861
                   2    0.215348  -12.628146


 MOLECULE KIND INFORMATION


 All atoms are their own molecule, skipping detailed information


 TOTAL NUMBERS AND MAXIMUM NUMBERS

  Total number of            - Atomic kinds:                                   2
                             - Atoms:                                         32
                             - Shell sets:                                    32
                             - Shells:                                       256
                             - Primitive Cartesian functions:                192
                             - Cartesian basis functions:                    992
                             - Spherical basis functions:                    832

  Maximum angular momentum of- Orbital basis functions:                        3
                             - Local part of the GTH pseudopotential:          2
                             - Non-local part of the GTH pseudopotential:      3


 MODULE QUICKSTEP: ATOMIC COORDINATES IN ANGSTROM

   Atom Kind Element         X             Y             Z       Z(eff)     Mass
      1    1 Ni   28      0.876298      0.876298      7.370500  18.0000  58.6934
      2    1 Ni   28      0.876298      4.382298      7.370500  18.0000  58.6934
      3    1 Ni   28      2.629298      2.629298      7.370500  18.0000  58.6934
      4    1 Ni   28      2.629298      6.135298      7.370500  18.0000  58.6934
      5    1 Ni   28      4.382298      0.876298      7.370500  18.0000  58.6934
      6    1 Ni   28      4.382298      4.382298      7.370500  18.0000  58.6934
      7    1 Ni   28      6.135298      2.629298      7.370500  18.0000  58.6934
      8    1 Ni   28      6.135298      6.135298      7.370500  18.0000  58.6934
      9    2 Ni   28      0.876298      2.629298      9.123500  18.0000  58.6934
     10    2 Ni   28      0.876298      6.135298      9.123500  18.0000  58.6934
     11    2 Ni   28      2.629298      0.876298      9.123500  18.0000  58.6934
     12    2 Ni   28      2.629298      4.382298      9.123500  18.0000  58.6934
     13    2 Ni   28      4.382298      2.629298      9.123500  18.0000  58.6934
     14    2 Ni   28      4.382298      6.135298      9.123500  18.0000  58.6934
     15    2 Ni   28      6.135298      0.876298      9.123500  18.0000  58.6934
     16    2 Ni   28      6.135298      4.382298      9.123500  18.0000  58.6934
     17    2 Ni   28      0.876298      0.876298     10.876500  18.0000  58.6934
     18    2 Ni   28      0.876298      4.382298     10.876500  18.0000  58.6934
     19    2 Ni   28      2.629298      2.629298     10.876500  18.0000  58.6934
     20    2 Ni   28      2.629298      6.135298     10.876500  18.0000  58.6934
     21    2 Ni   28      4.382298      0.876298     10.876500  18.0000  58.6934
     22    2 Ni   28      4.382298      4.382298     10.876500  18.0000  58.6934
     23    2 Ni   28      6.135298      2.629298     10.876500  18.0000  58.6934
     24    2 Ni   28      6.135298      6.135298     10.876500  18.0000  58.6934
     25    1 Ni   28      0.876298      2.629298     12.629500  18.0000  58.6934
     26    1 Ni   28      0.876298      6.135298     12.629500  18.0000  58.6934
     27    1 Ni   28      2.629298      0.876298     12.629500  18.0000  58.6934
     28    1 Ni   28      2.629298      4.382298     12.629500  18.0000  58.6934
     29    1 Ni   28      4.382298      2.629298     12.629500  18.0000  58.6934
     30    1 Ni   28      4.382298      6.135298     12.629500  18.0000  58.6934
     31    1 Ni   28      6.135298      0.876298     12.629500  18.0000  58.6934
     32    1 Ni   28      6.135298      4.382298     12.629500  18.0000  58.6934



 SCF PARAMETERS         Density guess:                                    ATOMIC
                        --------------------------------------------------------
                        max_scf:                                             500
                        max_scf_history:                                       0
                        max_diis:                                              4
                        --------------------------------------------------------
                        eps_scf:                                        1.00E-04
                        eps_scf_history:                                0.00E+00
                        eps_diis:                                       1.00E-01
                        eps_eigval:                                     1.00E-05
                        --------------------------------------------------------
                        level_shift [a.u.]:                             0.000000
                        added MOs                                       534  553
                        --------------------------------------------------------
                        Mixing method:                            BROYDEN_MIXING
                                                charge density mixing in g-space
                        --------------------------------------------------------
                        Smear method:                                FERMI_DIRAC
                        Electronic temperature [K]:                       2000.0
                        Electronic temperature [a.u.]:                  6.33E-03
                        Accuracy threshold:                             1.00E-10
                        --------------------------------------------------------
                        No outer SCF

 PW_GRID| Information for grid number                                          1
 PW_GRID| Grid distributed over                                   128 processors
 PW_GRID| Real space group dimensions                                     8   16
 PW_GRID| the grid is blocked:                                               YES
 PW_GRID| Cutoff [a.u.]                                                    300.0
 PW_GRID| spherical cutoff:                                                   NO
 PW_GRID|   Bounds   1            -54      53                Points:         108
 PW_GRID|   Bounds   2            -54      53                Points:         108
 PW_GRID|   Bounds   3           -150     149                Points:         300
 PW_GRID| Volume element (a.u.^3)  0.1896E-02     Volume (a.u.^3)      6635.2971
 PW_GRID| Grid span                                                    FULLSPACE
 PW_GRID|   Distribution                         Average         Max         Min
 PW_GRID|   G-Vectors                            27337.5       28728       25272
 PW_GRID|   G-Rays                                 253.1         266         234
 PW_GRID|   Real Space Points                    27337.5       28728       25272

 PW_GRID| Information for grid number                                          2
 PW_GRID| Number of the reference grid                                         1
 PW_GRID| Grid distributed over                                   128 processors
 PW_GRID| Real space group dimensions                                     8   16
 PW_GRID| the grid is blocked:                                                NO
 PW_GRID| Cutoff [a.u.]                                                    100.0
 PW_GRID| spherical cutoff:                                                   NO
 PW_GRID|   Bounds   1            -30      29                Points:          60
 PW_GRID|   Bounds   2            -30      29                Points:          60
 PW_GRID|   Bounds   3            -90      89                Points:         180
 PW_GRID| Volume element (a.u.^3)  0.1024E-01     Volume (a.u.^3)      6635.2971
 PW_GRID| Grid span                                                    FULLSPACE
 PW_GRID|   Distribution                         Average         Max         Min
 PW_GRID|   G-Vectors                             5062.5       15960           0
 PW_GRID|   G-Rays                                  84.4         266           0
 PW_GRID|   Real Space Points                     5062.5        5760        3780

 PW_GRID| Information for grid number                                          3
 PW_GRID| Number of the reference grid                                         1
 PW_GRID| Grid distributed over                                   128 processors
 PW_GRID| Real space group dimensions                                     8   16
 PW_GRID| the grid is blocked:                                                NO
 PW_GRID| Cutoff [a.u.]                                                     33.3
 PW_GRID| spherical cutoff:                                                   NO
 PW_GRID|   Bounds   1            -18      17                Points:          36
 PW_GRID|   Bounds   2            -18      17                Points:          36
 PW_GRID|   Bounds   3            -50      49                Points:         100
 PW_GRID| Volume element (a.u.^3)  0.5120E-01     Volume (a.u.^3)      6635.2971
 PW_GRID| Grid span                                                    FULLSPACE
 PW_GRID|   Distribution                         Average         Max         Min
 PW_GRID|   G-Vectors                             1012.5        9576           0
 PW_GRID|   G-Rays                                  28.1         266           0
 PW_GRID|   Real Space Points                     1012.5        1500         800

 PW_GRID| Information for grid number                                          4
 PW_GRID| Number of the reference grid                                         1
 PW_GRID| Grid distributed over                                   128 processors
 PW_GRID| Real space group dimensions                                     8   16
 PW_GRID| the grid is blocked:                                                NO
 PW_GRID| Cutoff [a.u.]                                                     11.1
 PW_GRID| spherical cutoff:                                                   NO
 PW_GRID|   Bounds   1            -10       9                Points:          20
 PW_GRID|   Bounds   2            -10       9                Points:          20
 PW_GRID|   Bounds   3            -30      29                Points:          60
 PW_GRID| Volume element (a.u.^3)  0.2765         Volume (a.u.^3)      6635.2971
 PW_GRID| Grid span                                                    FULLSPACE
 PW_GRID|   Distribution                         Average         Max         Min
 PW_GRID|   G-Vectors                              187.5        3800           0
 PW_GRID|   G-Rays                                   9.4         190           0
 PW_GRID|   Real Space Points                      187.5         360         120

 PW_GRID| Information for grid number                                          5
 PW_GRID| Number of the reference grid                                         1
 PW_GRID| Grid distributed over                                   128 processors
 PW_GRID| Real space group dimensions                                     8   16
 PW_GRID| the grid is blocked:                                                NO
 PW_GRID| Cutoff [a.u.]                                                      3.7
 PW_GRID| spherical cutoff:                                                   NO
 PW_GRID|   Bounds   1             -6       5                Points:          12
 PW_GRID|   Bounds   2             -6       5                Points:          12
 PW_GRID|   Bounds   3            -18      17                Points:          36
 PW_GRID| Volume element (a.u.^3)   1.280         Volume (a.u.^3)      6635.2971
 PW_GRID| Grid span                                                    FULLSPACE
 PW_GRID|   Distribution                         Average         Max         Min
 PW_GRID|   G-Vectors                               40.5        1296           0
 PW_GRID|   G-Rays                                   3.4         108           0
 PW_GRID|   Real Space Points                       40.5          72           0

 POISSON| Solver                                                        PERIODIC
 POISSON| Periodicity                                                        XYZ

 RS_GRID| Information for grid number                                          1
 RS_GRID|   Bounds   1            -54      53                Points:         108
 RS_GRID|   Bounds   2            -54      53                Points:         108
 RS_GRID|   Bounds   3           -150     149                Points:         300
 RS_GRID| Real space distribution over                                  8 groups
 RS_GRID| Real space distribution along direction                              2
 RS_GRID| Border size                                                         28
 RS_GRID| Real space distribution over                                 16 groups
 RS_GRID| Real space distribution along direction                              3
 RS_GRID| Border size                                                         28
 RS_GRID|   Distribution                         Average         Max         Min
 RS_GRID|   Planes                                  69.5          70          69
 RS_GRID|   Distribution                         Average         Max         Min
 RS_GRID|   Planes                                  74.8          75          74

 RS_GRID| Information for grid number                                          2
 RS_GRID|   Bounds   1            -30      29                Points:          60
 RS_GRID|   Bounds   2            -30      29                Points:          60
 RS_GRID|   Bounds   3            -90      89                Points:         180
 RS_GRID| Real space fully replicated
 RS_GRID| Group size                                                           1

 RS_GRID| Information for grid number                                          3
 RS_GRID|   Bounds   1            -18      17                Points:          36
 RS_GRID|   Bounds   2            -18      17                Points:          36
 RS_GRID|   Bounds   3            -50      49                Points:         100
 RS_GRID| Real space fully replicated
 RS_GRID| Group size                                                           1

 RS_GRID| Information for grid number                                          4
 RS_GRID|   Bounds   1            -10       9                Points:          20
 RS_GRID|   Bounds   2            -10       9                Points:          20
 RS_GRID|   Bounds   3            -30      29                Points:          60
 RS_GRID| Real space fully replicated
 RS_GRID| Group size                                                           1

 RS_GRID| Information for grid number                                          5
 RS_GRID|   Bounds   1             -6       5                Points:          12
 RS_GRID|   Bounds   2             -6       5                Points:          12
 RS_GRID|   Bounds   3            -18      17                Points:          36
 RS_GRID| Real space fully replicated
 RS_GRID| Group size                                                           1

 Spin 1

 Number of electrons:                                                        297.600
 Number of occupied orbitals:                                                298
 Number of molecular orbitals:                                               832

 Spin 2

 Number of electrons:                                                        278.400
 Number of occupied orbitals:                                                279
 Number of molecular orbitals:                                               832

 Number of orbital functions:                                                832
 Number of independent orbital functions:                                    832

 Extrapolation method: initial_guess

 Atomic guess: The first density matrix is obtained in terms of atomic orbitals
               and electronic configurations assigned to each atomic kind

 Guess for atomic kind: Ni_i

 Electronic structure
    Total number of core electrons                                         10.00
    Total number of valence electrons                                      18.00
    Total number of electrons                                              28.00
    Multiplicity                                                         doublet
    Alpha Electrons
    S   [  1.00  1.00] 1.00  1.00
    P   [  3.00] 3.00
    D      4.35
    Beta Electrons
    S   [  1.00  1.00] 1.00  1.00
    P   [  3.00] 3.00
    D      3.65


 *******************************************************************************
                  Iteration          Convergence                     Energy [au]
 *******************************************************************************
                          1         1.51729                    -167.067424631347
                          2         15.3902                    -156.642654318634
                          3         2.33433                    -168.319355313541
                          4        0.206730                    -168.609905008081
                          5        0.814175E-01                -168.612873080494
                          6        0.173318E-01                -168.613470181066
                          7        0.290432E-02                -168.613543571401
                          8        0.311825E-02                -168.613543401474
                          9        0.179670E-03                -168.613544404477
                         10        0.169386E-02                -168.613544207811
                         11        0.473341E-03                -168.613544360253
                         12        0.165417E-03                -168.613544400419
                         13        0.162622E-03                -168.613544401489
                         14        0.158325E-03                -168.613544403900
                         15        0.177007E-03                -168.613544402509
                         16        0.138916E-03                -168.613544404900
                         17        0.934549E-04                -168.613544406149
                         18        0.119916E-03                -168.613544405789
                         19        0.131607E-03                -168.613544405591
                         20        0.169309E-03                -168.613544404773
                         21        0.551337E-04                -168.613544406656
                         22        0.382664E-04                -168.613544406759
                         23        0.378942E-04                -168.613544406765
                         24        0.381089E-04                -168.613544406765
                         25        0.390835E-04                -168.613544406759
                         26        0.308614E-04                -168.613544406841
                         27        0.205044E-04                -168.613544406892
                         28        0.200942E-04                -168.613544406893
                         29        0.199375E-04                -168.613544406893
                         30        0.200198E-04                -168.613544406894
                         31        0.161325E-04                -168.613544406903
                         32        0.330614E-05                -168.613544406925
                         33        0.238713E-05                -168.613544406926
                         34        0.265439E-05                -168.613544406926
                         35        0.277073E-05                -168.613544406926
                         36        0.335175E-05                -168.613544406926
                         37        0.148809E-05                -168.613544406927
                         38        0.133447E-05                -168.613544406927
                         39        0.918735E-06                -168.613544406927

 Energy components [Hartree]           Total Energy ::         -168.613544406927
                                        Band Energy ::          -26.569761966525
                                     Kinetic Energy ::           97.306723392622
                                   Potential Energy ::         -265.920267799548
                                      Virial (-V/T) ::            2.732804666812
                                        Core Energy ::         -299.567979157577
                                          XC Energy ::          -16.227189041387
                                     Coulomb Energy ::          147.181623792037
                       Total Pseudopotential Energy ::         -396.961043505191
                       Local Pseudopotential Energy ::         -362.648291121960
                    Nonlocal Pseudopotential Energy ::          -34.312752383230
                                        Confinement ::            0.863409549921

 Orbital energies  State     Spin  L     Occupation   Energy[a.u.]    Energy[eV]

                       1    alpha  0          1.000      -4.172666   -113.544030
                       2    alpha  0          1.000      -0.181431     -4.936983
                       1     beta  0          1.000      -4.140640   -112.672541
                       2     beta  0          1.000      -0.176372     -4.799339

                       1    alpha  1          3.000      -2.578739    -70.171064
                       1     beta  1          3.000      -2.547579    -69.323162

                       1    alpha  2          4.350      -0.327039     -8.899191
                       1     beta  2          3.650      -0.300569     -8.178887


 Total Electron Density at R=0:                                         0.030422

 Guess for atomic kind: Ni_b

 Electronic structure
    Total number of core electrons                                         10.00
    Total number of valence electrons                                      18.00
    Total number of electrons                                              28.00
    Multiplicity                                                         doublet
    Alpha Electrons
    S   [  1.00  1.00] 1.00  1.00
    P   [  3.00] 3.00
    D      4.25
    Beta Electrons
    S   [  1.00  1.00] 1.00  1.00
    P   [  3.00] 3.00
    D      3.75


 *******************************************************************************
                  Iteration          Convergence                     Energy [au]
 *******************************************************************************
                          1         1.51687                    -167.065012761055
                          2         14.9817                    -156.620431300845
                          3         2.25575                    -168.317311438693
                          4        0.189210                    -168.607926092750
                          5        0.708658E-01                -168.610773319290
                          6        0.122256E-01                -168.611238205502
                          7        0.598421E-02                -168.611272268995
                          8        0.528277E-02                -168.611272438110
                          9        0.104644E-02                -168.611275321653
                         10        0.260234E-02                -168.611274926630
                         11        0.975322E-03                -168.611275328217
                         12        0.161067E-03                -168.611275447773
                         13        0.147413E-03                -168.611275446839
                         14        0.115114E-03                -168.611275449434
                         15        0.167217E-03                -168.611275445436
                         16        0.255374E-04                -168.611275450531
                         17        0.418369E-04                -168.611275450414
                         18        0.393709E-04                -168.611275450477
                         19        0.239931E-04                -168.611275450542
                         20        0.173885E-04                -168.611275450557
                         21        0.851368E-05                -168.611275450578
                         22        0.849928E-05                -168.611275450580
                         23        0.544937E-05                -168.611275450584
                         24        0.540003E-05                -168.611275450586
                         25        0.613371E-05                -168.611275450584
                         26        0.311593E-06                -168.611275450588

 Energy components [Hartree]           Total Energy ::         -168.611275450588
                                        Band Energy ::          -26.568680144499
                                     Kinetic Energy ::           97.303659243130
                                   Potential Energy ::         -265.914934693718
                                      Virial (-V/T) ::            2.732835915546
                                        Core Energy ::         -299.566189183323
                                          XC Energy ::          -16.224592878785
                                     Coulomb Energy ::          147.179506611520
                       Total Pseudopotential Energy ::         -396.956189041778
                       Local Pseudopotential Energy ::         -362.645043136649
                    Nonlocal Pseudopotential Energy ::          -34.311145905129
                                        Confinement ::            0.863406153250

 Orbital energies  State     Spin  L     Occupation   Energy[a.u.]    Energy[eV]

                       1    alpha  0          1.000      -4.168335   -113.426177
                       2    alpha  0          1.000      -0.180730     -4.917906
                       1     beta  0          1.000      -4.145459   -112.803683
                       2     beta  0          1.000      -0.177117     -4.819606

                       1    alpha  1          3.000      -2.574525    -70.056390
                       1     beta  1          3.000      -2.552268    -69.450746

                       1    alpha  2          4.250      -0.323446     -8.801405
                       1     beta  2          3.750      -0.304537     -8.286881


 Total Electron Density at R=0:                                         0.030429

 Spin 1
 Re-scaling the density matrix to get the right number of electrons for spin 1
                  # Electrons              Trace(P)               Scaling factor
                        297.600             297.600                        1.000

 Spin 2
 Re-scaling the density matrix to get the right number of electrons for spin 2
                  # Electrons              Trace(P)               Scaling factor
                        278.400             278.400                        1.000


 SCF WAVEFUNCTION OPTIMIZATION

  Step     Update method      Time    Convergence         Total energy    Change
  ------------------------------------------------------------------------------
     1 NoMix/Diag. 0.80E-01    1.6     0.87318318     -5426.4441344177 -5.43E+03
     2 Broy./Diag. 0.80E-01    1.5     0.08514610     -5319.4286827502  1.07E+02
[...]
   134 Broy./Diag. 0.80E-01    1.5     0.04157429     -5418.2726825307 -5.37E-02
   135 Broy./Diag. 0.80E-01    1.5     0.03945846     -5418.1248631765  1.48E-01
   136 Broy./Diag. 0.80E-01    1.5     0.06975181     -5418.1861601369 -6.13E-02
   137 Broy./Diag. 0.80E-01    1.5     0.01191977     -5417.9241532426  2.62E-01
   138 Broy./Diag. 0.80E-01    1.5     0.01790464     -5417.8272663895  9.69E-02
   139 Broy./Diag. 0.80E-01    1.5     0.02205778     -5417.8433606386 -1.61E-02
   140 Broy./Diag. 0.80E-01    1.5     0.01466388     -5417.7290530174  1.14E-01
   141 Broy./Diag. 0.80E-01    1.5     0.00714611     -5417.7714827476 -4.24E-02
   142 Broy./Diag. 0.80E-01    1.5     0.00408635     -5417.7719221488 -4.39E-04
   143 Broy./Diag. 0.80E-01    1.5     0.05654307     -5417.8201309235 -4.82E-02
   144 Broy./Diag. 0.80E-01    1.5     0.04555576     -5418.1913074607 -3.71E-01
   145 Broy./Diag. 0.80E-01    1.5     0.02571195     -5418.2636939540 -7.24E-02
   146 Broy./Diag. 0.80E-01    1.5     0.09041861     -5418.2067998553  5.69E-02
   147 Broy./Diag. 0.80E-01    1.5     0.05659210     -5418.0725310790  1.34E-01
   148 Broy./Diag. 0.80E-01    1.5     0.07170490     -5418.2549346990 -1.82E-01
   149 Broy./Diag. 0.80E-01    1.5     0.09593250     -5418.6032618453 -3.48E-01
   150 Broy./Diag. 0.80E-01    1.5     0.08922802     -5417.9656015987  6.38E-01
   151 Broy./Diag. 0.80E-01    1.5     0.03765691     -5418.3180424812 -3.52E-01
   152 Broy./Diag. 0.80E-01    1.5     0.13361234     -5418.4689125385 -1.51E-01
   153 Broy./Diag. 0.80E-01    1.5     0.08379091     -5418.6864580057 -2.18E-01
   154 Broy./Diag. 0.80E-01    1.5     0.02816657     -5418.9521181819 -2.66E-01
   155 Broy./Diag. 0.80E-01    1.5     0.02310031     -5419.0347327556 -8.26E-02
   156 Broy./Diag. 0.80E-01    1.5     0.03070272     -5418.9618934009  7.28E-02
   157 Broy./Diag. 0.80E-01    1.5     0.10206808     -5418.9430035985  1.89E-02
   158 Broy./Diag. 0.80E-01    1.5     0.09879965     -5418.9075979974  3.54E-02
   159 Broy./Diag. 0.80E-01    1.5     0.05737601     -5419.0564157131 -1.49E-01
   160 Broy./Diag. 0.80E-01    1.5     0.05729678     -5419.1143019604 -5.79E-02
   161 Broy./Diag. 0.80E-01    1.5     0.25249961     -5419.0521139447  6.22E-02
   162 Broy./Diag. 0.80E-01    1.5     0.33560614     -5420.3257008212 -1.27E+00
   163 Broy./Diag. 0.80E-01    1.5     0.16256502     -5419.6797384753  6.46E-01
   164 Broy./Diag. 0.80E-01    1.5     0.03624542     -5418.6277202303  1.05E+00
   165 Broy./Diag. 0.80E-01    1.5     0.05156211     -5418.4916401956  1.36E-01
   166 Broy./Diag. 0.80E-01    1.5     0.08007645     -5418.3092718181  1.82E-01
   167 Broy./Diag. 0.80E-01    1.5     0.15819732     -5418.1794328978  1.30E-01
   168 Broy./Diag. 0.80E-01    1.5     0.07034824     -5418.1916888102 -1.23E-02
   169 Broy./Diag. 0.80E-01    1.5     0.06580229     -5417.7543473870  4.37E-01
   170 Broy./Diag. 0.80E-01    1.5     0.07832140     -5417.6837423420  7.06E-02
   171 Broy./Diag. 0.80E-01    1.5     0.05722685     -5417.5236197710  1.60E-01
   172 Broy./Diag. 0.80E-01    1.5     0.09966604     -5417.7044563958 -1.81E-01
   173 Broy./Diag. 0.80E-01    1.5     0.05538221     -5417.5656937358  1.39E-01
   174 Broy./Diag. 0.80E-01    1.5     0.11629784     -5417.6434456060 -7.78E-02
   175 Broy./Diag. 0.80E-01    1.5     0.05307081     -5417.5768109301  6.66E-02
   176 Broy./Diag. 0.80E-01    1.5     0.16197209     -5417.4527529671  1.24E-01
   177 Broy./Diag. 0.80E-01    1.5     0.19098542     -5416.9344526979  5.18E-01
   178 Broy./Diag. 0.80E-01    1.5     0.09293338     -5416.4990498299  4.35E-01
   179 Broy./Diag. 0.80E-01    1.5     0.12259175     -5416.6437290220 -1.45E-01
   180 Broy./Diag. 0.80E-01    1.5     0.19908852     -5416.5369620624  1.07E-01
   181 Broy./Diag. 0.80E-01    1.5     0.10024422     -5416.6166811434 -7.97E-02
   182 Broy./Diag. 0.80E-01    1.5     0.03566064     -5416.3456417109  2.71E-01
   183 Broy./Diag. 0.80E-01    1.5     0.46769264     -5416.5010137731 -1.55E-01
   184 Broy./Diag. 0.80E-01    1.5     0.34744671     -5414.6221442866  1.88E+00
   185 Broy./Diag. 0.80E-01    1.5     0.30038185     -5417.0434094393 -2.42E+00
   186 Broy./Diag. 0.80E-01    1.5     0.19630935     -5416.4541652992  5.89E-01
   187 Broy./Diag. 0.80E-01    1.5     0.13382893     -5415.7127477814  7.41E-01
   188 Broy./Diag. 0.80E-01    1.5     0.07782429     -5416.3693262249 -6.57E-01
   189 Broy./Diag. 0.80E-01    1.5     0.07779529     -5416.5833846576 -2.14E-01
   190 Broy./Diag. 0.80E-01    1.5     0.05300428     -5416.5793967616  3.99E-03
   191 Broy./Diag. 0.80E-01    1.5     0.23832219     -5416.7697291955 -1.90E-01
   192 Broy./Diag. 0.80E-01    1.5     0.26692487     -5416.8408976479 -7.12E-02
   193 Broy./Diag. 0.80E-01    1.5     0.25545151     -5418.5617172350 -1.72E+00
   194 Broy./Diag. 0.80E-01    1.5     0.16220918     -5418.7585217296 -1.97E-01
   195 Broy./Diag. 0.80E-01    1.5     0.08493449     -5418.5227510939  2.36E-01
   196 Broy./Diag. 0.80E-01    1.5     0.07414325     -5418.3684741495  1.54E-01
   197 Broy./Diag. 0.80E-01    1.5     0.07151716     -5418.6889160055 -3.20E-01
   198 Broy./Diag. 0.80E-01    1.5     0.17124805     -5418.3240571152  3.65E-01
   199 Broy./Diag. 0.80E-01    1.5     0.08425795     -5417.6200715685  7.04E-01
   200 Broy./Diag. 0.80E-01    1.5     0.11551075     -5417.8548073841 -2.35E-01
   201 Broy./Diag. 0.80E-01    1.5     0.09823574     -5417.8509086796  3.90E-03
   202 Broy./Diag. 0.80E-01    1.5     0.13475053     -5417.9712495028 -1.20E-01
   203 Broy./Diag. 0.80E-01    1.5     0.10374750     -5417.6604486400  3.11E-01
   204 Broy./Diag. 0.80E-01    1.5     0.03713031     -5417.7846934276 -1.24E-01
   205 Broy./Diag. 0.80E-01    1.5     0.10535908     -5418.0173085211 -2.33E-01
   206 Broy./Diag. 0.80E-01    1.5     0.07061890     -5418.0000193132  1.73E-02
   207 Broy./Diag. 0.80E-01    1.5     0.09725246     -5417.7820496295  2.18E-01
   208 Broy./Diag. 0.80E-01    1.5     0.26022327     -5417.5708048377  2.11E-01
   209 Broy./Diag. 0.80E-01    1.5     0.21488320     -5417.0175300147  5.53E-01
   210 Broy./Diag. 0.80E-01    1.5     0.11243289     -5416.7495098910  2.68E-01
   211 Broy./Diag. 0.80E-01    1.5     0.21694141     -5416.7217222539  2.78E-02
   212 Broy./Diag. 0.80E-01    1.5     0.10404488     -5416.3541934079  3.68E-01
   213 Broy./Diag. 0.80E-01    1.5     0.18754772     -5416.9617953624 -6.08E-01
   214 Broy./Diag. 0.80E-01    1.5     0.03741575     -5417.5740960261 -6.12E-01
   215 Broy./Diag. 0.80E-01    1.5     0.13079794     -5417.6447629512 -7.07E-02
   216 Broy./Diag. 0.80E-01    1.5     0.14836315     -5418.0898657490 -4.45E-01
   217 Broy./Diag. 0.80E-01    1.5     0.11641326     -5418.4651837116 -3.75E-01
   218 Broy./Diag. 0.80E-01    1.5     0.19406084     -5418.1935847373  2.72E-01
   219 Broy./Diag. 0.80E-01    1.5     0.23791834     -5417.8203756391  3.73E-01
   220 Broy./Diag. 0.80E-01    1.5     0.18044261     -5418.0914551924 -2.71E-01
   221 Broy./Diag. 0.80E-01    1.5     0.13099587     -5417.8050857473  2.86E-01
   222 Broy./Diag. 0.80E-01    1.5     0.10037671     -5417.9622809378 -1.57E-01
   223 Broy./Diag. 0.80E-01    1.5     0.20908448     -5418.2216247192 -2.59E-01
   224 Broy./Diag. 0.80E-01    1.5     0.05156024     -5418.4026382976 -1.81E-01
   225 Broy./Diag. 0.80E-01    1.5     0.05136170     -5418.5653017540 -1.63E-01
   226 Broy./Diag. 0.80E-01    1.5     0.17739720     -5418.7818824519 -2.17E-01
   227 Broy./Diag. 0.80E-01    1.5     0.12983179     -5418.5857657926  1.96E-01
   228 Broy./Diag. 0.80E-01    1.5     0.14529373     -5418.7662442842 -1.80E-01
   229 Broy./Diag. 0.80E-01    1.5     0.25147956     -5418.2927908473  4.73E-01
   230 Broy./Diag. 0.80E-01    1.5     0.19862081     -5418.2143674916  7.84E-02
   231 Broy./Diag. 0.80E-01    1.5     0.11662755     -5418.2255776831 -1.12E-02
   232 Broy./Diag. 0.80E-01    1.5     0.16945468     -5418.3407638074 -1.15E-01
   233 Broy./Diag. 0.80E-01    1.5     0.13793801     -5418.6865063455 -3.46E-01
   234 Broy./Diag. 0.80E-01    1.5     0.24842468     -5418.8858131133 -1.99E-01
   235 Broy./Diag. 0.80E-01    1.5     0.04363909     -5418.2489824459  6.37E-01
   236 Broy./Diag. 0.80E-01    1.5     0.08617305     -5417.9859652775  2.63E-01
   237 Broy./Diag. 0.80E-01    1.5     0.17232191     -5417.9546027394  3.14E-02
   238 Broy./Diag. 0.80E-01    1.5     0.15855743     -5418.1931030889 -2.39E-01
   239 Broy./Diag. 0.80E-01    1.5     0.13829191     -5417.9335625757  2.60E-01
   240 Broy./Diag. 0.80E-01    1.5     0.13306147     -5417.8549983999  7.86E-02
   241 Broy./Diag. 0.80E-01    1.5     0.04079460     -5418.4558365521 -6.01E-01
   242 Broy./Diag. 0.80E-01    1.5     0.31990913     -5418.2620390072  1.94E-01
   243 Broy./Diag. 0.80E-01    1.5     0.03656297     -5417.7124024781  5.50E-01
   244 Broy./Diag. 0.80E-01    1.5     0.23225800     -5417.7078179798  4.58E-03
   245 Broy./Diag. 0.80E-01    1.5     0.26063974     -5417.7284811426 -2.07E-02
   246 Broy./Diag. 0.80E-01    1.5     0.26064527     -5417.7205614507  7.92E-03
   247 Broy./Diag. 0.80E-01    1.5     0.38924217     -5417.7372023669 -1.66E-02
   248 Broy./Diag. 0.80E-01    1.5     0.50400846     -5417.8830615673 -1.46E-01
   249 Broy./Diag. 0.80E-01    1.5     0.15443500     -5418.4754518192 -5.92E-01
   250 Broy./Diag. 0.80E-01    1.5     0.16561056     -5417.8733157298  6.02E-01
   251 Broy./Diag. 0.80E-01    1.5     0.22054939     -5418.1103188100 -2.37E-01
   252 Broy./Diag. 0.80E-01    1.5     0.03989127     -5418.3167738545 -2.06E-01
   253 Broy./Diag. 0.80E-01    1.5     0.12169813     -5418.3772795012 -6.05E-02
   254 Broy./Diag. 0.80E-01    1.5     0.26886592     -5418.5756490599 -1.98E-01
   255 Broy./Diag. 0.80E-01    1.5     0.23777225     -5418.7331539093 -1.58E-01
   256 Broy./Diag. 0.80E-01    1.5     0.14163630     -5418.4430569119  2.90E-01
   257 Broy./Diag. 0.80E-01    1.5     0.11291820     -5418.5873375067 -1.44E-01
   258 Broy./Diag. 0.80E-01    1.5     0.03364235     -5418.5872527450  8.48E-05
   259 Broy./Diag. 0.80E-01    1.5     0.21668690     -5418.3188164691  2.68E-01
   260 Broy./Diag. 0.80E-01    1.5     0.29535474     -5418.5775653595 -2.59E-01
   261 Broy./Diag. 0.80E-01    1.5     0.12250979     -5418.0794547246  4.98E-01
   262 Broy./Diag. 0.80E-01    1.5     0.23952695     -5418.1979673142 -1.19E-01
   263 Broy./Diag. 0.80E-01    1.5     0.19395802     -5415.8365018982  2.36E+00
   264 Broy./Diag. 0.80E-01    1.5     0.07758691     -5418.7830862895 -2.95E+00
   265 Broy./Diag. 0.80E-01    1.5     0.13075645     -5418.4814621697  3.02E-01
   266 Broy./Diag. 0.80E-01    1.5     0.12594796     -5418.4225784294  5.89E-02
   267 Broy./Diag. 0.80E-01    1.5     0.08744556     -5418.7771422813 -3.55E-01
   268 Broy./Diag. 0.80E-01    1.5     0.08420281     -5417.7867548257  9.90E-01
   269 Broy./Diag. 0.80E-01    1.5     0.14992137     -5417.9574608398 -1.71E-01
   270 Broy./Diag. 0.80E-01    1.5     0.28538734     -5417.5427459950  4.15E-01
   271 Broy./Diag. 0.80E-01    1.5     0.09508352     -5417.6886600145 -1.46E-01
   272 Broy./Diag. 0.80E-01    1.5     0.10452509     -5418.1378346765 -4.49E-01
   273 Broy./Diag. 0.80E-01    1.5     0.10938794     -5418.0800017395  5.78E-02
   274 Broy./Diag. 0.80E-01    1.5     0.33958275     -5418.1411266752 -6.11E-02
   275 Broy./Diag. 0.80E-01    1.5     0.24315004     -5418.0318476280  1.09E-01
   276 Broy./Diag. 0.80E-01    1.5     0.35058056     -5418.1230238197 -9.12E-02
   277 Broy./Diag. 0.80E-01    1.5     0.15865325     -5419.9351370335 -1.81E+00
   278 Broy./Diag. 0.80E-01    1.5     0.15303564     -5419.3105942391  6.25E-01
   279 Broy./Diag. 0.80E-01    1.5     0.31531020     -5419.0554429432  2.55E-01
   280 Broy./Diag. 0.80E-01    1.5     0.15288455     -5418.6698323665  3.86E-01
   281 Broy./Diag. 0.80E-01    1.5     0.17144242     -5418.2912102392  3.79E-01
   282 Broy./Diag. 0.80E-01    1.5     0.18429627     -5417.4556314135  8.36E-01
   283 Broy./Diag. 0.80E-01    1.5     0.14667999     -5417.1340185535  3.22E-01
   284 Broy./Diag. 0.80E-01    1.5     0.20098740     -5416.8886701796  2.45E-01
   285 Broy./Diag. 0.80E-01    1.5     0.11716048     -5416.8342267575  5.44E-02
   286 Broy./Diag. 0.80E-01    1.5     0.12165954     -5417.0873034579 -2.53E-01
   287 Broy./Diag. 0.80E-01    1.6     0.08432038     -5418.0805825087 -9.93E-01
   288 Broy./Diag. 0.80E-01    1.5     0.09149776     -5417.7307780499  3.50E-01
   289 Broy./Diag. 0.80E-01    1.5     0.05652710     -5417.8745581306 -1.44E-01
   290 Broy./Diag. 0.80E-01    1.5     0.07291155     -5418.0508577987 -1.76E-01
   291 Broy./Diag. 0.80E-01    1.5     0.16217436     -5418.8505133585 -8.00E-01
   292 Broy./Diag. 0.80E-01    1.5     0.11222003     -5419.0223730881 -1.72E-01
   293 Broy./Diag. 0.80E-01    1.5     0.31553825     -5419.2051419806 -1.83E-01
   294 Broy./Diag. 0.80E-01    1.5     0.30725928     -5418.8926014897  3.13E-01
   295 Broy./Diag. 0.80E-01    1.5     0.25345807     -5418.1891639613  7.03E-01
   296 Broy./Diag. 0.80E-01    1.5     0.12120447     -5418.7600790762 -5.71E-01
   297 Broy./Diag. 0.80E-01    1.5     0.06603171     -5418.3732276931  3.87E-01
   298 Broy./Diag. 0.80E-01    1.5     0.11951048     -5418.2809625296  9.23E-02
   299 Broy./Diag. 0.80E-01    1.5     0.14570092     -5418.6074497688 -3.26E-01
   300 Broy./Diag. 0.80E-01    1.5     0.23431222     -5419.2153626691 -6.08E-01
   301 Broy./Diag. 0.80E-01    1.5     0.32787330     -5418.7232815699  4.92E-01
   302 Broy./Diag. 0.80E-01    1.5     0.07591850     -5419.4078206804 -6.85E-01
   303 Broy./Diag. 0.80E-01    1.5     0.15321007     -5419.3349964645  7.28E-02
   304 Broy./Diag. 0.80E-01    1.5     0.28136384     -5419.4257870674 -9.08E-02
   305 Broy./Diag. 0.80E-01    1.5     0.26469527     -5418.6507498975  7.75E-01
   306 Broy./Diag. 0.80E-01    1.5     0.11043070     -5418.5475905650  1.03E-01
   307 Broy./Diag. 0.80E-01    1.5     0.09021528     -5418.7978057176 -2.50E-01
   308 Broy./Diag. 0.80E-01    1.5     0.15317700     -5419.0782261744 -2.80E-01
   309 Broy./Diag. 0.80E-01    1.5     0.30639922     -5420.2558533767 -1.18E+00
   310 Broy./Diag. 0.80E-01    1.5     0.07158249     -5418.5691732586  1.69E+00
   311 Broy./Diag. 0.80E-01    1.5     0.16215180     -5418.3693711729  2.00E-01
   312 Broy./Diag. 0.80E-01    1.5     0.11475346     -5417.9700796759  3.99E-01
   313 Broy./Diag. 0.80E-01    1.5     0.26819097     -5418.6104998210 -6.40E-01
   314 Broy./Diag. 0.80E-01    1.5     0.25871825     -5417.8015462676  8.09E-01
   315 Broy./Diag. 0.80E-01    1.5     0.22148526     -5417.2154830538  5.86E-01
   316 Broy./Diag. 0.80E-01    1.5     0.17977454     -5416.8575985545  3.58E-01
   317 Broy./Diag. 0.80E-01    1.5     0.34046732     -5417.0903289278 -2.33E-01
   318 Broy./Diag. 0.80E-01    1.5     0.53685352     -5418.2643467321 -1.17E+00
   319 Broy./Diag. 0.80E-01    1.5     0.23362899     -5419.0418367453 -7.77E-01
   320 Broy./Diag. 0.80E-01    1.5     0.22994410     -5419.2169480916 -1.75E-01
   321 Broy./Diag. 0.80E-01    1.5     0.51412975     -5418.6243452940  5.93E-01
   322 Broy./Diag. 0.80E-01    1.5     0.10899421     -5418.5361207186  8.82E-02
   323 Broy./Diag. 0.80E-01    1.5     0.07815344     -5418.5209977526  1.51E-02
   324 Broy./Diag. 0.80E-01    1.5     0.12070910     -5418.3807915093  1.40E-01
   325 Broy./Diag. 0.80E-01    1.5     0.44203674     -5418.3613996632  1.94E-02
   326 Broy./Diag. 0.80E-01    1.5     0.19481939     -5418.8098991815 -4.48E-01
   327 Broy./Diag. 0.80E-01    1.5     0.33930293     -5419.6017720218 -7.92E-01
   328 Broy./Diag. 0.80E-01    1.5     0.02399035     -5418.8155612489  7.86E-01
   329 Broy./Diag. 0.80E-01    1.5     0.24560461     -5419.3778770674 -5.62E-01
   330 Broy./Diag. 0.80E-01    1.5     0.44005606     -5419.2141185028  1.64E-01
   331 Broy./Diag. 0.80E-01    1.5     0.25072438     -5418.2483181337  9.66E-01
   332 Broy./Diag. 0.80E-01    1.5     0.27186492     -5418.5115672417 -2.63E-01
   333 Broy./Diag. 0.80E-01    1.5     0.11166175     -5418.2473706362  2.64E-01
   334 Broy./Diag. 0.80E-01    1.5     0.27974919     -5418.3612959370 -1.14E-01
   335 Broy./Diag. 0.80E-01    1.5     0.11862357     -5418.4284999445 -6.72E-02
   336 Broy./Diag. 0.80E-01    1.5     0.12247643     -5418.2278619966  2.01E-01
   337 Broy./Diag. 0.80E-01    1.5     0.20994047     -5418.5590017652 -3.31E-01
   338 Broy./Diag. 0.80E-01    1.5     0.20405788     -5419.5604079922 -1.00E+00
   339 Broy./Diag. 0.80E-01    1.5     0.25623253     -5419.0780935044  4.82E-01
   340 Broy./Diag. 0.80E-01    1.5     0.37562478     -5419.2145091321 -1.36E-01
   341 Broy./Diag. 0.80E-01    1.5     0.22394847     -5418.5724629965  6.42E-01
   342 Broy./Diag. 0.80E-01    1.5     0.54032057     -5419.0642046923 -4.92E-01
   343 Broy./Diag. 0.80E-01    1.5     0.27652823     -5418.6563882197  4.08E-01
   344 Broy./Diag. 0.80E-01    1.5     0.28138487     -5418.6723252595 -1.59E-02
   345 Broy./Diag. 0.80E-01    1.5     0.24670186     -5419.3157741374 -6.43E-01
   346 Broy./Diag. 0.80E-01    1.5     0.35227832     -5419.8009030201 -4.85E-01
   347 Broy./Diag. 0.80E-01    1.5     0.20516492     -5419.3658137370  4.35E-01
   348 Broy./Diag. 0.80E-01    1.5     0.30526655     -5419.1918590228  1.74E-01
   349 Broy./Diag. 0.80E-01    1.5     0.39300125     -5419.1901589239  1.70E-03
   350 Broy./Diag. 0.80E-01    1.5     0.14905270     -5420.2788105856 -1.09E+00
   351 Broy./Diag. 0.80E-01    1.5     0.51292277     -5419.8649915439  4.14E-01
   352 Broy./Diag. 0.80E-01    1.5     0.16402601     -5419.2685403019  5.96E-01
   353 Broy./Diag. 0.80E-01    1.5     0.48020952     -5418.5580908594  7.10E-01
   354 Broy./Diag. 0.80E-01    1.5     0.07204509     -5418.8035328947 -2.45E-01
   355 Broy./Diag. 0.80E-01    1.5     0.14226213     -5418.8778198537 -7.43E-02
   356 Broy./Diag. 0.80E-01    1.5     0.35472156     -5419.1388062146 -2.61E-01
   357 Broy./Diag. 0.80E-01    1.5     0.25341313     -5418.6214885886  5.17E-01
   358 Broy./Diag. 0.80E-01    1.5     0.07155127     -5418.1583962055  4.63E-01
   359 Broy./Diag. 0.80E-01    1.5     0.16735273     -5418.1959818923 -3.76E-02
   360 Broy./Diag. 0.80E-01    1.5     0.08045542     -5419.0460565026 -8.50E-01
   361 Broy./Diag. 0.80E-01    1.5     0.25953133     -5419.1869861680 -1.41E-01
   362 Broy./Diag. 0.80E-01    1.5     0.36024701     -5418.6649006155  5.22E-01
   363 Broy./Diag. 0.80E-01    1.5     0.15014767     -5418.8149479405 -1.50E-01
   364 Broy./Diag. 0.80E-01    1.5     0.31921377     -5418.8995752909 -8.46E-02
   365 Broy./Diag. 0.80E-01    1.5     0.34736128     -5418.4192502909  4.80E-01
   366 Broy./Diag. 0.80E-01    1.5     0.27401590     -5419.1971493891 -7.78E-01
   367 Broy./Diag. 0.80E-01    1.5     0.15472342     -5417.9266109900  1.27E+00
   368 Broy./Diag. 0.80E-01    1.5     0.03632984     -5418.2506666373 -3.24E-01
   369 Broy./Diag. 0.80E-01    1.5     0.11114730     -5418.4113543015 -1.61E-01
   370 Broy./Diag. 0.80E-01    1.5     0.25989413     -5418.1799179778  2.31E-01
   371 Broy./Diag. 0.80E-01    1.5     0.26096809     -5418.5271541661 -3.47E-01
   372 Broy./Diag. 0.80E-01    1.5     0.12900075     -5418.9579538856 -4.31E-01
   373 Broy./Diag. 0.80E-01    1.5     0.17208923     -5418.7412410369  2.17E-01
   374 Broy./Diag. 0.80E-01    1.5     0.16065458     -5418.9143831188 -1.73E-01
   375 Broy./Diag. 0.80E-01    1.5     0.31164761     -5417.9304865975  9.84E-01
   376 Broy./Diag. 0.80E-01    1.5     0.48849434     -5418.0823706199 -1.52E-01
   377 Broy./Diag. 0.80E-01    1.5     0.34617355     -5419.6965404801 -1.61E+00
   378 Broy./Diag. 0.80E-01    1.5     0.60264733     -5420.5018938242 -8.05E-01
   379 Broy./Diag. 0.80E-01    1.5     0.14719525     -5419.7250181228  7.77E-01
   380 Broy./Diag. 0.80E-01    1.5     0.22318685     -5419.470680