 DBCSR| CPU Multiplication driver                                           XSMM (U)
 DBCSR| Multrec recursion limit                                              512 (U)
 DBCSR| Multiplication stack size                                           1000 (D)
 DBCSR| Maximum elements for images                                    UNLIMITED (U)
 DBCSR| Multiplicative factor virtual images                                   1 (U)
 DBCSR| Use multiplication densification                                       T (D)
 DBCSR| Multiplication size stacks                                             3 (U)
 DBCSR| Use memory pool for CPU allocation                                     F (U)
 DBCSR| Number of 3D layers                                               SINGLE (U)
 DBCSR| Use MPI memory allocation                                              F (U)
 DBCSR| Use RMA algorithm                                                      F (U)
 DBCSR| Use Communication thread                                               T (U)
 DBCSR| Communication thread load                                             87 (D)
 DBCSR| MPI: My process id                                                     0
 DBCSR| MPI: Number of processes                                             128
 DBCSR| OMP: Current number of threads                                         1
 DBCSR| OMP: Max number of threads                                             1
 DBCSR| Split modifier for TAS multiplication algorithm                  1.0E+00 (U)


  **** **** ******  **  PROGRAM STARTED AT               2023-02-14 19:08:53.447
 ***** ** ***  *** **   PROGRAM STARTED ON                             nid006198
 **    ****   ******    PROGRAM STARTED BY                                cahart
 ***** **    ** ** **   PROGRAM PROCESS ID                                177007
  **** **  *******  **  PROGRAM STARTED IN /mnt/lustre/a2fs-work2/work/e05/e05/c
                                           ahart/postdoc/masters/ni/archer2/slab
                                           /optimise/alpha-beta/scf_1e-3_mos-100
                                           0_temp-2000_spin-0.7-0.5_periodic-xyz
                                           /search/4.0E-01_8.0E-02

 CP2K| version string:                 CP2K version 2023.1 (Development Version)
 CP2K| source code revision number:                                  git:964cd58
 CP2K| cp2kflags: omp libint fftw3 libxc elpa parallel scalapack xsmm plumed2 mk
 CP2K|            l
 CP2K| is freely available from                            https://www.cp2k.org/
 CP2K| Program compiled at                          Mon 13 Feb 17:05:14 GMT 2023
 CP2K| Program compiled on                                                  ln01
 CP2K| Program compiled for                                              ARCHER2
 CP2K| Data directory path    /work/e05/e05/cahart/cp2k/cp2k-2023.1/cp2k-2023.1-
 CP2K| Input file name                                                  cp2k.inp

 GLOBAL| Force Environment number                                              1
 GLOBAL| Basis set file name                                        BASIS_MOLOPT
 GLOBAL| Potential file name                                      GTH_POTENTIALS
 GLOBAL| MM Potential file name                                     MM_POTENTIAL
 GLOBAL| Coordinate file name                                      __STD_INPUT__
 GLOBAL| Method name                                                        CP2K
 GLOBAL| Project name                                                    Ni_bulk
 GLOBAL| Run type                                                         ENERGY
 GLOBAL| FFT library                                                       FFTW3
 GLOBAL| Diagonalization library                                            ELPA
 GLOBAL| DGEMM library                                                      BLAS
 GLOBAL| Minimum number of eigenvectors for ELPA usage                        16
 GLOBAL| Orthonormality check for eigenvectors                          DISABLED
 GLOBAL| Matrix multiplication library                                 ScaLAPACK
 GLOBAL| All-to-all communication in single precision                          F
 GLOBAL| FFTs using library dependent lengths                                  F
 GLOBAL| Grid backend                                                       AUTO
 GLOBAL| Global print level                                               MEDIUM
 GLOBAL| MPI I/O enabled                                                       T
 GLOBAL| Total number of message passing processes                           128
 GLOBAL| Number of threads for this process                                    1
 GLOBAL| This output is from process                                           0
 GLOBAL| Stack size for threads created by OpenMP (OMP_STACKSIZE)        default
 GLOBAL| CPU model name                          AMD EPYC 7742 64-Core Processor
 GLOBAL| CPUID                                                              1002

 MEMORY| system memory details [Kb]
 MEMORY|                        rank 0           min           max       average
 MEMORY| MemTotal            263528088     263528088     263528088     263528088
 MEMORY| MemFree             238646680     238646680     238646680     238646680
 MEMORY| Buffers                 25044         25044         25044         25044
 MEMORY| Cached                 810552        810552        810552        810552
 MEMORY| Slab                  1661160       1661160       1661160       1661160
 MEMORY| SReclaimable           107560        107560        107560        107560
 MEMORY| MemLikelyFree       239589836     239589836     239589836     239589836


 *** Fundamental physical constants (SI units) ***

 *** Literature: B. J. Mohr and B. N. Taylor,
 ***             CODATA recommended values of the fundamental physical
 ***             constants: 2006, Web Version 5.1
 ***             http://physics.nist.gov/constants

 Speed of light in vacuum [m/s]                             2.99792458000000E+08
 Magnetic constant or permeability of vacuum [N/A**2]       1.25663706143592E-06
 Electric constant or permittivity of vacuum [F/m]          8.85418781762039E-12
 Planck constant (h) [J*s]                                  6.62606896000000E-34
 Planck constant (h-bar) [J*s]                              1.05457162825177E-34
 Elementary charge [C]                                      1.60217648700000E-19
 Electron mass [kg]                                         9.10938215000000E-31
 Electron g factor [ ]                                     -2.00231930436220E+00
 Proton mass [kg]                                           1.67262163700000E-27
 Fine-structure constant                                    7.29735253760000E-03
 Rydberg constant [1/m]                                     1.09737315685270E+07
 Avogadro constant [1/mol]                                  6.02214179000000E+23
 Boltzmann constant [J/K]                                   1.38065040000000E-23
 Atomic mass unit [kg]                                      1.66053878200000E-27
 Bohr radius [m]                                            5.29177208590000E-11

 *** Conversion factors ***

 [u] -> [a.u.]                                              1.82288848426455E+03
 [Angstrom] -> [Bohr] = [a.u.]                              1.88972613288564E+00
 [a.u.] = [Bohr] -> [Angstrom]                              5.29177208590000E-01
 [a.u.] -> [s]                                              2.41888432650478E-17
 [a.u.] -> [fs]                                             2.41888432650478E-02
 [a.u.] -> [J]                                              4.35974393937059E-18
 [a.u.] -> [N]                                              8.23872205491840E-08
 [a.u.] -> [K]                                              3.15774647902944E+05
 [a.u.] -> [kJ/mol]                                         2.62549961709828E+03
 [a.u.] -> [kcal/mol]                                       6.27509468713739E+02
 [a.u.] -> [Pa]                                             2.94210107994716E+13
 [a.u.] -> [bar]                                            2.94210107994716E+08
 [a.u.] -> [atm]                                            2.90362800883016E+08
 [a.u.] -> [eV]                                             2.72113838565563E+01
 [a.u.] -> [Hz]                                             6.57968392072181E+15
 [a.u.] -> [1/cm] (wave numbers)                            2.19474631370540E+05
 [a.u./Bohr**2] -> [1/cm]                                   5.14048714338585E+03
 

 CELL_TOP| Volume [angstrom^3]:                                       983.249569
 CELL_TOP| Vector a [angstrom     7.012     0.000     0.000   |a| =     7.011596
 CELL_TOP| Vector b [angstrom     0.000     7.012     0.000   |b| =     7.011596
 CELL_TOP| Vector c [angstrom     0.000     0.000    20.000   |c| =    20.000000
 CELL_TOP| Angle (b,c), alpha [degree]:                                90.000000
 CELL_TOP| Angle (a,c), beta  [degree]:                                90.000000
 CELL_TOP| Angle (a,b), gamma [degree]:                                90.000000
 CELL_TOP| Numerically orthorhombic:                                         YES
 CELL_TOP| Periodicity                                                       XYZ

 GENERATE|  Preliminary Number of Bonds generated:                             0
 GENERATE|  Achieved consistency in connectivity generation.

 CELL| Volume [angstrom^3]:                                           983.249569
 CELL| Vector a [angstrom]:       7.012     0.000     0.000   |a| =     7.011596
 CELL| Vector b [angstrom]:       0.000     7.012     0.000   |b| =     7.011596
 CELL| Vector c [angstrom]:       0.000     0.000    20.000   |c| =    20.000000
 CELL| Angle (b,c), alpha [degree]:                                    90.000000
 CELL| Angle (a,c), beta  [degree]:                                    90.000000
 CELL| Angle (a,b), gamma [degree]:                                    90.000000
 CELL| Numerically orthorhombic:                                             YES
 CELL| Periodicity                                                           XYZ

 CELL_REF| Volume [angstrom^3]:                                       983.249569
 CELL_REF| Vector a [angstrom     7.012     0.000     0.000   |a| =     7.011596
 CELL_REF| Vector b [angstrom     0.000     7.012     0.000   |b| =     7.011596
 CELL_REF| Vector c [angstrom     0.000     0.000    20.000   |c| =    20.000000
 CELL_REF| Angle (b,c), alpha [degree]:                                90.000000
 CELL_REF| Angle (a,c), beta  [degree]:                                90.000000
 CELL_REF| Angle (a,b), gamma [degree]:                                90.000000
 CELL_REF| Numerically orthorhombic:                                         YES
 CELL_REF| Periodicity                                                       XYZ

 *** WARNING in cryssym.F:165 :: Symmetry library SPGLIB not available ***


 *******************************************************************************
                                    Kpoints
 *******************************************************************************
 BRILLOUIN| K-point scheme                                        Monkhorst-Pack
 BRILLOUIN| K-Point grid                                             4    4    1
 BRILLOUIN| Accuracy in Symmetry determination                      0.100000E-05
 BRILLOUIN| K-Point point group symmetrization                               OFF
 BRILLOUIN| Wavefunction type                                            COMPLEX
 BRILLOUIN| List of Kpoints [2 Pi/Bohr]                                        8
 BRILLOUIN| Number           Weight            X              Y              Z
 BRILLOUIN|     1           0.12500       -0.37500       -0.37500        0.00000
 BRILLOUIN|     2           0.12500       -0.37500       -0.12500        0.00000
 BRILLOUIN|     3           0.12500       -0.37500        0.12500        0.00000
 BRILLOUIN|     4           0.12500       -0.37500        0.37500        0.00000
 BRILLOUIN|     5           0.12500       -0.12500       -0.37500        0.00000
 BRILLOUIN|     6           0.12500       -0.12500       -0.12500        0.00000
 BRILLOUIN|     7           0.12500       -0.12500        0.12500        0.00000
 BRILLOUIN|     8           0.12500       -0.12500        0.37500        0.00000
 *******************************************************************************

 *******************************************************************************
 *******************************************************************************
 **                                                                           **
 **     #####                         ##              ##                      **
 **    ##   ##            ##          ##              ##                      **
 **   ##     ##                       ##            ######                    **
 **   ##     ##  ##   ##  ##   #####  ##  ##   ####   ##    #####    #####    **
 **   ##     ##  ##   ##  ##  ##      ## ##   ##      ##   ##   ##  ##   ##   **
 **   ##  ## ##  ##   ##  ##  ##      ####     ###    ##   ######   ######    **
 **    ##  ###   ##   ##  ##  ##      ## ##      ##   ##   ##       ##        **
 **     #######   #####   ##   #####  ##  ##  ####    ##    #####   ##        **
 **           ##                                                    ##        **
 **                                                                           **
 **                                                ... make the atoms dance   **
 **                                                                           **
 **            Copyright (C) by CP2K developers group (2000-2023)             **
 **                      J. Chem. Phys. 152, 194103 (2020)                    **
 **                                                                           **
 *******************************************************************************

 *** WARNING in qs_environment.F:1456 :: Number of electrons will be ***
 *** overwritten by NELEC_ALPHA and NELEC_BETA, multiplicity will be ***
 *** ignored.                                                        ***

 Number of electrons should be                                               576
 Sum of NELEC_ALPHA and NELEC_BETA is                                    576.000

 *** WARNING in qs_environment.F:1488 :: NELEC_ALPHA is not an integer, ***
 *** many features will not be supported.                               ***


 *** WARNING in qs_environment.F:1500 :: NELEC_BETA is not an integer, ***
 *** many features will not be supported.                              ***


 *** WARNING in qs_environment.F:1532 :: More ADDED_MOs requested for beta ***
 *** spin than available.                                                  ***


 *** WARNING in qs_environment.F:1548 :: More added MOs requested than     ***
 *** available. The full set of unoccupied MOs will be used. Use           ***
 *** 'ADDED_MOS -1' to always use all available MOs and to get rid of this ***
 *** warning.                                                              ***


 DFT| Spin unrestricted (spin-polarized) Kohn-Sham calculation               UKS
 DFT| Multiplicity                                                             1
 DFT| Number of spin states                                                    2
 DFT| Charge                                                                   0
 DFT| Self-interaction correction (SIC)                                       NO
 DFT| Cutoffs: density                                              1.000000E-10
 DFT|          gradient                                             1.000000E-10
 DFT|          tau                                                  1.000000E-10
 DFT|          cutoff_smoothing_range                               0.000000E+00
 DFT| XC density smoothing                                                  NONE
 DFT| XC derivatives                                                          PW

 FUNCTIONAL| PBE:
 FUNCTIONAL| J.P.Perdew, K.Burke, M.Ernzerhof, Phys. Rev. Letter, vol. 77, n 18,
 FUNCTIONAL|  pp. 3865-3868, (1996){spin polarized}                             

 vdW POTENTIAL|                                                   Pair Potential
 vdW POTENTIAL|          DFT-D3 (Version 3.1)
 vdW POTENTIAL|          Potential Form: S. Grimme et al, JCP 132: 154104 (2010)
 vdW POTENTIAL|          Zero Damping
 vdW POTENTIAL|          Cutoff Radius [Bohr]:                             20.00
 vdW POTENTIAL|          s6 Scaling Factor:                               1.0000
 vdW POTENTIAL|          sr6 Scaling Factor:                              1.2170
 vdW POTENTIAL|          s8 Scaling Factor:                               0.7220
 vdW POTENTIAL|          Cutoff for CN calculation:                   0.1000E-05

 QS| Method:                                                                 GPW
 QS| Density plane wave grid type                        NON-SPHERICAL FULLSPACE
 QS| Number of grid levels:                                                    5
 QS| Density cutoff [a.u.]:                                                300.0
 QS| Multi grid cutoff [a.u.]: 1) grid level                               300.0
 QS|                           2) grid level                               100.0
 QS|                           3) grid level                                33.3
 QS|                           4) grid level                                11.1
 QS|                           5) grid level                                 3.7
 QS| Grid level progression factor:                                          3.0
 QS| Relative density cutoff [a.u.]:                                        30.0
 QS| Interaction thresholds: eps_pgf_orb:                                1.0E-06
 QS|                         eps_filter_matrix:                          0.0E+00
 QS|                         eps_core_charge:                            1.0E-14
 QS|                         eps_rho_gspace:                             1.0E-12
 QS|                         eps_rho_rspace:                             1.0E-12
 QS|                         eps_gvg_rspace:                             1.0E-06
 QS|                         eps_ppl:                                    1.0E-02
 QS|                         eps_ppnl:                                   1.0E-08


 ATOMIC KIND INFORMATION

  1. Atomic kind: Ni_i                                  Number of atoms:      16

     Orbital Basis Set                                        DZVP-MOLOPT-SR-GTH

       Number of orbital shell sets:                                           1
       Number of orbital shells:                                               8
       Number of primitive Cartesian functions:                                6
       Number of Cartesian basis functions:                                   31
       Number of spherical basis functions:                                   26
       Norm type:                                                              2

       Normalised Cartesian orbitals:

                        Set   Shell   Orbital            Exponent    Coefficient

                          1       1    2s               10.077428      -0.684558
                                                         5.847736      -0.844524
                                                         2.494033       1.088856
                                                         0.988355       0.395503
                                                         0.344978       0.010224
                                                         0.099466      -0.003250

                          1       2    3s               10.077428       0.096747
                                                         5.847736       0.162504
                                                         2.494033      -0.297192
                                                         0.988355      -0.319752
                                                         0.344978       0.088318
                                                         0.099466       0.118587

                          1       3    4s               10.077428       0.036437
                                                         5.847736      -0.381480
                                                         2.494033       0.003759
                                                         0.988355      -1.048256
                                                         0.344978       0.855825
                                                         0.099466      -0.176350

                          1       4    3px              10.077428      -3.133913
                                                         5.847736       3.027656
                                                         2.494033       2.353227
                                                         0.988355       0.554184
                                                         0.344978       0.019462
                                                         0.099466      -0.000291
                          1       4    3py              10.077428      -3.133913
                                                         5.847736       3.027656
                                                         2.494033       2.353227
                                                         0.988355       0.554184
                                                         0.344978       0.019462
                                                         0.099466      -0.000291
                          1       4    3pz              10.077428      -3.133913
                                                         5.847736       3.027656
                                                         2.494033       2.353227
                                                         0.988355       0.554184
                                                         0.344978       0.019462
                                                         0.099466      -0.000291

                          1       5    4px              10.077428      -0.112729
                                                         5.847736      -0.114008
                                                         2.494033      -0.347303
                                                         0.988355      -0.110323
                                                         0.344978       0.154096
                                                         0.099466       0.058386
                          1       5    4py              10.077428      -0.112729
                                                         5.847736      -0.114008
                                                         2.494033      -0.347303
                                                         0.988355      -0.110323
                                                         0.344978       0.154096
                                                         0.099466       0.058386
                          1       5    4pz              10.077428      -0.112729
                                                         5.847736      -0.114008
                                                         2.494033      -0.347303
                                                         0.988355      -0.110323
                                                         0.344978       0.154096
                                                         0.099466       0.058386

                          1       6    4dx2             10.077428       8.232726
                                                         5.847736       9.105758
                                                         2.494033       2.849835
                                                         0.988355       0.554319
                                                         0.344978       0.067245
                                                         0.099466       0.001940
                          1       6    4dxy             10.077428      14.259500
                                                         5.847736      15.771636
                                                         2.494033       4.936060
                                                         0.988355       0.960109
                                                         0.344978       0.116472
                                                         0.099466       0.003360
                          1       6    4dxz             10.077428      14.259500
                                                         5.847736      15.771636
                                                         2.494033       4.936060
                                                         0.988355       0.960109
                                                         0.344978       0.116472
                                                         0.099466       0.003360
                          1       6    4dy2             10.077428       8.232726
                                                         5.847736       9.105758
                                                         2.494033       2.849835
                                                         0.988355       0.554319
                                                         0.344978       0.067245
                                                         0.099466       0.001940
                          1       6    4dyz             10.077428      14.259500
                                                         5.847736      15.771636
                                                         2.494033       4.936060
                                                         0.988355       0.960109
                                                         0.344978       0.116472
                                                         0.099466       0.003360
                          1       6    4dz2             10.077428       8.232726
                                                         5.847736       9.105758
                                                         2.494033       2.849835
                                                         0.988355       0.554319
                                                         0.344978       0.067245
                                                         0.099466       0.001940

                          1       7    5dx2             10.077428      -2.715373
                                                         5.847736      -4.020640
                                                         2.494033      -1.397569
                                                         0.988355      -0.076143
                                                         0.344978       0.033435
                                                         0.099466       0.026032
                          1       7    5dxy             10.077428      -4.703164
                                                         5.847736      -6.963952
                                                         2.494033      -2.420661
                                                         0.988355      -0.131883
                                                         0.344978       0.057911
                                                         0.099466       0.045088
                          1       7    5dxz             10.077428      -4.703164
                                                         5.847736      -6.963952
                                                         2.494033      -2.420661
                                                         0.988355      -0.131883
                                                         0.344978       0.057911
                                                         0.099466       0.045088
                          1       7    5dy2             10.077428      -2.715373
                                                         5.847736      -4.020640
                                                         2.494033      -1.397569
                                                         0.988355      -0.076143
                                                         0.344978       0.033435
                                                         0.099466       0.026032
                          1       7    5dyz             10.077428      -4.703164
                                                         5.847736      -6.963952
                                                         2.494033      -2.420661
                                                         0.988355      -0.131883
                                                         0.344978       0.057911
                                                         0.099466       0.045088
                          1       7    5dz2             10.077428      -2.715373
                                                         5.847736      -4.020640
                                                         2.494033      -1.397569
                                                         0.988355      -0.076143
                                                         0.344978       0.033435
                                                         0.099466       0.026032

                          1       8    5fx3             10.077428      -0.467694
                                                         5.847736       0.618100
                                                         2.494033       0.066069
                                                         0.988355       0.262898
                                                         0.344978       0.004720
                                                         0.099466       0.007748
                          1       8    5fx2y            10.077428      -1.045795
                                                         5.847736       1.382114
                                                         2.494033       0.147734
                                                         0.988355       0.587859
                                                         0.344978       0.010555
                                                         0.099466       0.017325
                          1       8    5fx2z            10.077428      -1.045795
                                                         5.847736       1.382114
                                                         2.494033       0.147734
                                                         0.988355       0.587859
                                                         0.344978       0.010555
                                                         0.099466       0.017325
                          1       8    5fxy2            10.077428      -1.045795
                                                         5.847736       1.382114
                                                         2.494033       0.147734
                                                         0.988355       0.587859
                                                         0.344978       0.010555
                                                         0.099466       0.017325
                          1       8    5fxyz            10.077428      -1.811371
                                                         5.847736       2.393892
                                                         2.494033       0.255883
                                                         0.988355       1.018201
                                                         0.344978       0.018282
                                                         0.099466       0.030008
                          1       8    5fxz2            10.077428      -1.045795
                                                         5.847736       1.382114
                                                         2.494033       0.147734
                                                         0.988355       0.587859
                                                         0.344978       0.010555
                                                         0.099466       0.017325
                          1       8    5fy3             10.077428      -0.467694
                                                         5.847736       0.618100
                                                         2.494033       0.066069
                                                         0.988355       0.262898
                                                         0.344978       0.004720
                                                         0.099466       0.007748
                          1       8    5fy2z            10.077428      -1.045795
                                                         5.847736       1.382114
                                                         2.494033       0.147734
                                                         0.988355       0.587859
                                                         0.344978       0.010555
                                                         0.099466       0.017325
                          1       8    5fyz2            10.077428      -1.045795
                                                         5.847736       1.382114
                                                         2.494033       0.147734
                                                         0.988355       0.587859
                                                         0.344978       0.010555
                                                         0.099466       0.017325
                          1       8    5fz3             10.077428      -0.467694
                                                         5.847736       0.618100
                                                         2.494033       0.066069
                                                         0.988355       0.262898
                                                         0.344978       0.004720
                                                         0.099466       0.007748

       Atomic covalent radius [Angstrom]:                                  1.150

       Atomic van der Waals radius [Angstrom]:                             1.630

     GTH Potential information for                                   GTH-PBE-q18

       Description:                       Goedecker-Teter-Hutter pseudopotential
                                           Goedecker et al., PRB 54, 1703 (1996)
                                          Hartwigsen et al., PRB 58, 3641 (1998)
                                                      Krack, TCA 114, 145 (2005)

       Gaussian exponent of the core charge distribution:               4.081633
       Electronic configuration (s p d ...):                           4   6   8

       Parameters of the local part of the GTH pseudopotential:

                          rloc        C1          C2          C3          C4
                        0.350000    2.102166    0.648484

       Parameters of the non-local part of the GTH pseudopotential:

                   l      r(l)      h(i,j,l)

                   0    0.261295    0.622658    9.970227
                                    9.970227  -12.871507
                   1    0.224253  -11.142708   12.429566
                                   12.429566  -14.706861
                   2    0.215348  -12.628146

  2. Atomic kind: Ni_b                                  Number of atoms:      16

     Orbital Basis Set                                        DZVP-MOLOPT-SR-GTH

       Number of orbital shell sets:                                           1
       Number of orbital shells:                                               8
       Number of primitive Cartesian functions:                                6
       Number of Cartesian basis functions:                                   31
       Number of spherical basis functions:                                   26
       Norm type:                                                              2

       Normalised Cartesian orbitals:

                        Set   Shell   Orbital            Exponent    Coefficient

                          1       1    2s               10.077428      -0.684558
                                                         5.847736      -0.844524
                                                         2.494033       1.088856
                                                         0.988355       0.395503
                                                         0.344978       0.010224
                                                         0.099466      -0.003250

                          1       2    3s               10.077428       0.096747
                                                         5.847736       0.162504
                                                         2.494033      -0.297192
                                                         0.988355      -0.319752
                                                         0.344978       0.088318
                                                         0.099466       0.118587

                          1       3    4s               10.077428       0.036437
                                                         5.847736      -0.381480
                                                         2.494033       0.003759
                                                         0.988355      -1.048256
                                                         0.344978       0.855825
                                                         0.099466      -0.176350

                          1       4    3px              10.077428      -3.133913
                                                         5.847736       3.027656
                                                         2.494033       2.353227
                                                         0.988355       0.554184
                                                         0.344978       0.019462
                                                         0.099466      -0.000291
                          1       4    3py              10.077428      -3.133913
                                                         5.847736       3.027656
                                                         2.494033       2.353227
                                                         0.988355       0.554184
                                                         0.344978       0.019462
                                                         0.099466      -0.000291
                          1       4    3pz              10.077428      -3.133913
                                                         5.847736       3.027656
                                                         2.494033       2.353227
                                                         0.988355       0.554184
                                                         0.344978       0.019462
                                                         0.099466      -0.000291

                          1       5    4px              10.077428      -0.112729
                                                         5.847736      -0.114008
                                                         2.494033      -0.347303
                                                         0.988355      -0.110323
                                                         0.344978       0.154096
                                                         0.099466       0.058386
                          1       5    4py              10.077428      -0.112729
                                                         5.847736      -0.114008
                                                         2.494033      -0.347303
                                                         0.988355      -0.110323
                                                         0.344978       0.154096
                                                         0.099466       0.058386
                          1       5    4pz              10.077428      -0.112729
                                                         5.847736      -0.114008
                                                         2.494033      -0.347303
                                                         0.988355      -0.110323
                                                         0.344978       0.154096
                                                         0.099466       0.058386

                          1       6    4dx2             10.077428       8.232726
                                                         5.847736       9.105758
                                                         2.494033       2.849835
                                                         0.988355       0.554319
                                                         0.344978       0.067245
                                                         0.099466       0.001940
                          1       6    4dxy             10.077428      14.259500
                                                         5.847736      15.771636
                                                         2.494033       4.936060
                                                         0.988355       0.960109
                                                         0.344978       0.116472
                                                         0.099466       0.003360
                          1       6    4dxz             10.077428      14.259500
                                                         5.847736      15.771636
                                                         2.494033       4.936060
                                                         0.988355       0.960109
                                                         0.344978       0.116472
                                                         0.099466       0.003360
                          1       6    4dy2             10.077428       8.232726
                                                         5.847736       9.105758
                                                         2.494033       2.849835
                                                         0.988355       0.554319
                                                         0.344978       0.067245
                                                         0.099466       0.001940
                          1       6    4dyz             10.077428      14.259500
                                                         5.847736      15.771636
                                                         2.494033       4.936060
                                                         0.988355       0.960109
                                                         0.344978       0.116472
                                                         0.099466       0.003360
                          1       6    4dz2             10.077428       8.232726
                                                         5.847736       9.105758
                                                         2.494033       2.849835
                                                         0.988355       0.554319
                                                         0.344978       0.067245
                                                         0.099466       0.001940

                          1       7    5dx2             10.077428      -2.715373
                                                         5.847736      -4.020640
                                                         2.494033      -1.397569
                                                         0.988355      -0.076143
                                                         0.344978       0.033435
                                                         0.099466       0.026032
                          1       7    5dxy             10.077428      -4.703164
                                                         5.847736      -6.963952
                                                         2.494033      -2.420661
                                                         0.988355      -0.131883
                                                         0.344978       0.057911
                                                         0.099466       0.045088
                          1       7    5dxz             10.077428      -4.703164
                                                         5.847736      -6.963952
                                                         2.494033      -2.420661
                                                         0.988355      -0.131883
                                                         0.344978       0.057911
                                                         0.099466       0.045088
                          1       7    5dy2             10.077428      -2.715373
                                                         5.847736      -4.020640
                                                         2.494033      -1.397569
                                                         0.988355      -0.076143
                                                         0.344978       0.033435
                                                         0.099466       0.026032
                          1       7    5dyz             10.077428      -4.703164
                                                         5.847736      -6.963952
                                                         2.494033      -2.420661
                                                         0.988355      -0.131883
                                                         0.344978       0.057911
                                                         0.099466       0.045088
                          1       7    5dz2             10.077428      -2.715373
                                                         5.847736      -4.020640
                                                         2.494033      -1.397569
                                                         0.988355      -0.076143
                                                         0.344978       0.033435
                                                         0.099466       0.026032

                          1       8    5fx3             10.077428      -0.467694
                                                         5.847736       0.618100
                                                         2.494033       0.066069
                                                         0.988355       0.262898
                                                         0.344978       0.004720
                                                         0.099466       0.007748
                          1       8    5fx2y            10.077428      -1.045795
                                                         5.847736       1.382114
                                                         2.494033       0.147734
                                                         0.988355       0.587859
                                                         0.344978       0.010555
                                                         0.099466       0.017325
                          1       8    5fx2z            10.077428      -1.045795
                                                         5.847736       1.382114
                                                         2.494033       0.147734
                                                         0.988355       0.587859
                                                         0.344978       0.010555
                                                         0.099466       0.017325
                          1       8    5fxy2            10.077428      -1.045795
                                                         5.847736       1.382114
                                                         2.494033       0.147734
                                                         0.988355       0.587859
                                                         0.344978       0.010555
                                                         0.099466       0.017325
                          1       8    5fxyz            10.077428      -1.811371
                                                         5.847736       2.393892
                                                         2.494033       0.255883
                                                         0.988355       1.018201
                                                         0.344978       0.018282
                                                         0.099466       0.030008
                          1       8    5fxz2            10.077428      -1.045795
                                                         5.847736       1.382114
                                                         2.494033       0.147734
                                                         0.988355       0.587859
                                                         0.344978       0.010555
                                                         0.099466       0.017325
                          1       8    5fy3             10.077428      -0.467694
                                                         5.847736       0.618100
                                                         2.494033       0.066069
                                                         0.988355       0.262898
                                                         0.344978       0.004720
                                                         0.099466       0.007748
                          1       8    5fy2z            10.077428      -1.045795
                                                         5.847736       1.382114
                                                         2.494033       0.147734
                                                         0.988355       0.587859
                                                         0.344978       0.010555
                                                         0.099466       0.017325
                          1       8    5fyz2            10.077428      -1.045795
                                                         5.847736       1.382114
                                                         2.494033       0.147734
                                                         0.988355       0.587859
                                                         0.344978       0.010555
                                                         0.099466       0.017325
                          1       8    5fz3             10.077428      -0.467694
                                                         5.847736       0.618100
                                                         2.494033       0.066069
                                                         0.988355       0.262898
                                                         0.344978       0.004720
                                                         0.099466       0.007748

       Atomic covalent radius [Angstrom]:                                  1.150

       Atomic van der Waals radius [Angstrom]:                             1.630

     GTH Potential information for                                   GTH-PBE-q18

       Description:                       Goedecker-Teter-Hutter pseudopotential
                                           Goedecker et al., PRB 54, 1703 (1996)
                                          Hartwigsen et al., PRB 58, 3641 (1998)
                                                      Krack, TCA 114, 145 (2005)

       Gaussian exponent of the core charge distribution:               4.081633
       Electronic configuration (s p d ...):                           4   6   8

       Parameters of the local part of the GTH pseudopotential:

                          rloc        C1          C2          C3          C4
                        0.350000    2.102166    0.648484

       Parameters of the non-local part of the GTH pseudopotential:

                   l      r(l)      h(i,j,l)

                   0    0.261295    0.622658    9.970227
                                    9.970227  -12.871507
                   1    0.224253  -11.142708   12.429566
                                   12.429566  -14.706861
                   2    0.215348  -12.628146


 MOLECULE KIND INFORMATION


 All atoms are their own molecule, skipping detailed information


 TOTAL NUMBERS AND MAXIMUM NUMBERS

  Total number of            - Atomic kinds:                                   2
                             - Atoms:                                         32
                             - Shell sets:                                    32
                             - Shells:                                       256
                             - Primitive Cartesian functions:                192
                             - Cartesian basis functions:                    992
                             - Spherical basis functions:                    832

  Maximum angular momentum of- Orbital basis functions:                        3
                             - Local part of the GTH pseudopotential:          2
                             - Non-local part of the GTH pseudopotential:      3


 MODULE QUICKSTEP: ATOMIC COORDINATES IN ANGSTROM

   Atom Kind Element         X             Y             Z       Z(eff)     Mass
      1    1 Ni   28      0.876298      0.876298      7.370500  18.0000  58.6934
      2    1 Ni   28      0.876298      4.382298      7.370500  18.0000  58.6934
      3    1 Ni   28      2.629298      2.629298      7.370500  18.0000  58.6934
      4    1 Ni   28      2.629298      6.135298      7.370500  18.0000  58.6934
      5    1 Ni   28      4.382298      0.876298      7.370500  18.0000  58.6934
      6    1 Ni   28      4.382298      4.382298      7.370500  18.0000  58.6934
      7    1 Ni   28      6.135298      2.629298      7.370500  18.0000  58.6934
      8    1 Ni   28      6.135298      6.135298      7.370500  18.0000  58.6934
      9    2 Ni   28      0.876298      2.629298      9.123500  18.0000  58.6934
     10    2 Ni   28      0.876298      6.135298      9.123500  18.0000  58.6934
     11    2 Ni   28      2.629298      0.876298      9.123500  18.0000  58.6934
     12    2 Ni   28      2.629298      4.382298      9.123500  18.0000  58.6934
     13    2 Ni   28      4.382298      2.629298      9.123500  18.0000  58.6934
     14    2 Ni   28      4.382298      6.135298      9.123500  18.0000  58.6934
     15    2 Ni   28      6.135298      0.876298      9.123500  18.0000  58.6934
     16    2 Ni   28      6.135298      4.382298      9.123500  18.0000  58.6934
     17    2 Ni   28      0.876298      0.876298     10.876500  18.0000  58.6934
     18    2 Ni   28      0.876298      4.382298     10.876500  18.0000  58.6934
     19    2 Ni   28      2.629298      2.629298     10.876500  18.0000  58.6934
     20    2 Ni   28      2.629298      6.135298     10.876500  18.0000  58.6934
     21    2 Ni   28      4.382298      0.876298     10.876500  18.0000  58.6934
     22    2 Ni   28      4.382298      4.382298     10.876500  18.0000  58.6934
     23    2 Ni   28      6.135298      2.629298     10.876500  18.0000  58.6934
     24    2 Ni   28      6.135298      6.135298     10.876500  18.0000  58.6934
     25    1 Ni   28      0.876298      2.629298     12.629500  18.0000  58.6934
     26    1 Ni   28      0.876298      6.135298     12.629500  18.0000  58.6934
     27    1 Ni   28      2.629298      0.876298     12.629500  18.0000  58.6934
     28    1 Ni   28      2.629298      4.382298     12.629500  18.0000  58.6934
     29    1 Ni   28      4.382298      2.629298     12.629500  18.0000  58.6934
     30    1 Ni   28      4.382298      6.135298     12.629500  18.0000  58.6934
     31    1 Ni   28      6.135298      0.876298     12.629500  18.0000  58.6934
     32    1 Ni   28      6.135298      4.382298     12.629500  18.0000  58.6934



 SCF PARAMETERS         Density guess:                                    ATOMIC
                        --------------------------------------------------------
                        max_scf:                                             500
                        max_scf_history:                                       0
                        max_diis:                                              4
                        --------------------------------------------------------
                        eps_scf:                                        1.00E-03
                        eps_scf_history:                                0.00E+00
                        eps_diis:                                       1.00E-01
                        eps_eigval:                                     1.00E-05
                        --------------------------------------------------------
                        level_shift [a.u.]:                             0.000000
                        added MOs                                       534  553
                        --------------------------------------------------------
                        Mixing method:                            BROYDEN_MIXING
                                                charge density mixing in g-space
                        --------------------------------------------------------
                        Smear method:                                FERMI_DIRAC
                        Electronic temperature [K]:                       2000.0
                        Electronic temperature [a.u.]:                  6.33E-03
                        Accuracy threshold:                             1.00E-10
                        --------------------------------------------------------
                        No outer SCF

 PW_GRID| Information for grid number                                          1
 PW_GRID| Grid distributed over                                   128 processors
 PW_GRID| Real space group dimensions                                     8   16
 PW_GRID| the grid is blocked:                                               YES
 PW_GRID| Cutoff [a.u.]                                                    300.0
 PW_GRID| spherical cutoff:                                                   NO
 PW_GRID|   Bounds   1            -54      53                Points:         108
 PW_GRID|   Bounds   2            -54      53                Points:         108
 PW_GRID|   Bounds   3           -150     149                Points:         300
 PW_GRID| Volume element (a.u.^3)  0.1896E-02     Volume (a.u.^3)      6635.2971
 PW_GRID| Grid span                                                    FULLSPACE
 PW_GRID|   Distribution                         Average         Max         Min
 PW_GRID|   G-Vectors                            27337.5       28728       25272
 PW_GRID|   G-Rays                                 253.1         266         234
 PW_GRID|   Real Space Points                    27337.5       28728       25272

 PW_GRID| Information for grid number                                          2
 PW_GRID| Number of the reference grid                                         1
 PW_GRID| Grid distributed over                                   128 processors
 PW_GRID| Real space group dimensions                                     8   16
 PW_GRID| the grid is blocked:                                                NO
 PW_GRID| Cutoff [a.u.]                                                    100.0
 PW_GRID| spherical cutoff:                                                   NO
 PW_GRID|   Bounds   1            -30      29                Points:          60
 PW_GRID|   Bounds   2            -30      29                Points:          60
 PW_GRID|   Bounds   3            -90      89                Points:         180
 PW_GRID| Volume element (a.u.^3)  0.1024E-01     Volume (a.u.^3)      6635.2971
 PW_GRID| Grid span                                                    FULLSPACE
 PW_GRID|   Distribution                         Average         Max         Min
 PW_GRID|   G-Vectors                             5062.5       15960           0
 PW_GRID|   G-Rays                                  84.4         266           0
 PW_GRID|   Real Space Points                     5062.5        5760        3780

 PW_GRID| Information for grid number                                          3
 PW_GRID| Number of the reference grid                                         1
 PW_GRID| Grid distributed over                                   128 processors
 PW_GRID| Real space group dimensions                                     8   16
 PW_GRID| the grid is blocked:                                                NO
 PW_GRID| Cutoff [a.u.]                                                     33.3
 PW_GRID| spherical cutoff:                                                   NO
 PW_GRID|   Bounds   1            -18      17                Points:          36
 PW_GRID|   Bounds   2            -18      17                Points:          36
 PW_GRID|   Bounds   3            -50      49                Points:         100
 PW_GRID| Volume element (a.u.^3)  0.5120E-01     Volume (a.u.^3)      6635.2971
 PW_GRID| Grid span                                                    FULLSPACE
 PW_GRID|   Distribution                         Average         Max         Min
 PW_GRID|   G-Vectors                             1012.5        9576           0
 PW_GRID|   G-Rays                                  28.1         266           0
 PW_GRID|   Real Space Points                     1012.5        1500         800

 PW_GRID| Information for grid number                                          4
 PW_GRID| Number of the reference grid                                         1
 PW_GRID| Grid distributed over                                   128 processors
 PW_GRID| Real space group dimensions                                     8   16
 PW_GRID| the grid is blocked:                                                NO
 PW_GRID| Cutoff [a.u.]                                                     11.1
 PW_GRID| spherical cutoff:                                                   NO
 PW_GRID|   Bounds   1            -10       9                Points:          20
 PW_GRID|   Bounds   2            -10       9                Points:          20
 PW_GRID|   Bounds   3            -30      29                Points:          60
 PW_GRID| Volume element (a.u.^3)  0.2765         Volume (a.u.^3)      6635.2971
 PW_GRID| Grid span                                                    FULLSPACE
 PW_GRID|   Distribution                         Average         Max         Min
 PW_GRID|   G-Vectors                              187.5        3800           0
 PW_GRID|   G-Rays                                   9.4         190           0
 PW_GRID|   Real Space Points                      187.5         360         120

 PW_GRID| Information for grid number                                          5
 PW_GRID| Number of the reference grid                                         1
 PW_GRID| Grid distributed over                                   128 processors
 PW_GRID| Real space group dimensions                                     8   16
 PW_GRID| the grid is blocked:                                                NO
 PW_GRID| Cutoff [a.u.]                                                      3.7
 PW_GRID| spherical cutoff:                                                   NO
 PW_GRID|   Bounds   1             -6       5                Points:          12
 PW_GRID|   Bounds   2             -6       5                Points:          12
 PW_GRID|   Bounds   3            -18      17                Points:          36
 PW_GRID| Volume element (a.u.^3)   1.280         Volume (a.u.^3)      6635.2971
 PW_GRID| Grid span                                                    FULLSPACE
 PW_GRID|   Distribution                         Average         Max         Min
 PW_GRID|   G-Vectors                               40.5        1296           0
 PW_GRID|   G-Rays                                   3.4         108           0
 PW_GRID|   Real Space Points                       40.5          72           0

 POISSON| Solver                                                        PERIODIC
 POISSON| Periodicity                                                        XYZ

 RS_GRID| Information for grid number                                          1
 RS_GRID|   Bounds   1            -54      53                Points:         108
 RS_GRID|   Bounds   2            -54      53                Points:         108
 RS_GRID|   Bounds   3           -150     149                Points:         300
 RS_GRID| Real space distribution over                                  8 groups
 RS_GRID| Real space distribution along direction                              2
 RS_GRID| Border size                                                         28
 RS_GRID| Real space distribution over                                 16 groups
 RS_GRID| Real space distribution along direction                              3
 RS_GRID| Border size                                                         28
 RS_GRID|   Distribution                         Average         Max         Min
 RS_GRID|   Planes                                  69.5          70          69
 RS_GRID|   Distribution                         Average         Max         Min
 RS_GRID|   Planes                                  74.8          75          74

 RS_GRID| Information for grid number                                          2
 RS_GRID|   Bounds   1            -30      29                Points:          60
 RS_GRID|   Bounds   2            -30      29                Points:          60
 RS_GRID|   Bounds   3            -90      89                Points:         180
 RS_GRID| Real space fully replicated
 RS_GRID| Group size                                                           1

 RS_GRID| Information for grid number                                          3
 RS_GRID|   Bounds   1            -18      17                Points:          36
 RS_GRID|   Bounds   2            -18      17                Points:          36
 RS_GRID|   Bounds   3            -50      49                Points:         100
 RS_GRID| Real space fully replicated
 RS_GRID| Group size                                                           1

 RS_GRID| Information for grid number                                          4
 RS_GRID|   Bounds   1            -10       9                Points:          20
 RS_GRID|   Bounds   2            -10       9                Points:          20
 RS_GRID|   Bounds   3            -30      29                Points:          60
 RS_GRID| Real space fully replicated
 RS_GRID| Group size                                                           1

 RS_GRID| Information for grid number                                          5
 RS_GRID|   Bounds   1             -6       5                Points:          12
 RS_GRID|   Bounds   2             -6       5                Points:          12
 RS_GRID|   Bounds   3            -18      17                Points:          36
 RS_GRID| Real space fully replicated
 RS_GRID| Group size                                                           1

 Spin 1

 Number of electrons:                                                        297.600
 Number of occupied orbitals:                                                298
 Number of molecular orbitals:                                               832

 Spin 2

 Number of electrons:                                                        278.400
 Number of occupied orbitals:                                                279
 Number of molecular orbitals:                                               832

 Number of orbital functions:                                                832
 Number of independent orbital functions:                                    832

 Extrapolation method: initial_guess

 Atomic guess: The first density matrix is obtained in terms of atomic orbitals
               and electronic configurations assigned to each atomic kind

 Guess for atomic kind: Ni_i

 Electronic structure
    Total number of core electrons                                         10.00
    Total number of valence electrons                                      18.00
    Total number of electrons                                              28.00
    Multiplicity                                                         doublet
    Alpha Electrons
    S   [  1.00  1.00] 1.00  1.00
    P   [  3.00] 3.00
    D      4.35
    Beta Electrons
    S   [  1.00  1.00] 1.00  1.00
    P   [  3.00] 3.00
    D      3.65


 *******************************************************************************
                  Iteration          Convergence                     Energy [au]
 *******************************************************************************
                          1         1.51729                    -167.067424631347
                          2         15.3902                    -156.642654318634
                          3         2.33433                    -168.319355313541
                          4        0.206730                    -168.609905008081
                          5        0.814175E-01                -168.612873080494
                          6        0.173318E-01                -168.613470181066
                          7        0.290432E-02                -168.613543571401
                          8        0.311825E-02                -168.613543401474
                          9        0.179670E-03                -168.613544404477
                         10        0.169386E-02                -168.613544207811
                         11        0.473341E-03                -168.613544360253
                         12        0.165417E-03                -168.613544400419
                         13        0.162622E-03                -168.613544401489
                         14        0.158325E-03                -168.613544403900
                         15        0.177007E-03                -168.613544402509
                         16        0.138916E-03                -168.613544404900
                         17        0.934549E-04                -168.613544406149
                         18        0.119916E-03                -168.613544405789
                         19        0.131607E-03                -168.613544405591
                         20        0.169309E-03                -168.613544404773
                         21        0.551337E-04                -168.613544406656
                         22        0.382664E-04                -168.613544406759
                         23        0.378942E-04                -168.613544406765
                         24        0.381089E-04                -168.613544406765
                         25        0.390835E-04                -168.613544406759
                         26        0.308614E-04                -168.613544406841
                         27        0.205044E-04                -168.613544406892
                         28        0.200942E-04                -168.613544406893
                         29        0.199375E-04                -168.613544406893
                         30        0.200198E-04                -168.613544406894
                         31        0.161325E-04                -168.613544406903
                         32        0.330614E-05                -168.613544406925
                         33        0.238713E-05                -168.613544406926
                         34        0.265439E-05                -168.613544406926
                         35        0.277073E-05                -168.613544406926
                         36        0.335175E-05                -168.613544406926
                         37        0.148809E-05                -168.613544406927
                         38        0.133447E-05                -168.613544406927
                         39        0.918735E-06                -168.613544406927

 Energy components [Hartree]           Total Energy ::         -168.613544406927
                                        Band Energy ::          -26.569761966525
                                     Kinetic Energy ::           97.306723392622
                                   Potential Energy ::         -265.920267799548
                                      Virial (-V/T) ::            2.732804666812
                                        Core Energy ::         -299.567979157577
                                          XC Energy ::          -16.227189041387
                                     Coulomb Energy ::          147.181623792037
                       Total Pseudopotential Energy ::         -396.961043505191
                       Local Pseudopotential Energy ::         -362.648291121960
                    Nonlocal Pseudopotential Energy ::          -34.312752383230
                                        Confinement ::            0.863409549921

 Orbital energies  State     Spin  L     Occupation   Energy[a.u.]    Energy[eV]

                       1    alpha  0          1.000      -4.172666   -113.544030
                       2    alpha  0          1.000      -0.181431     -4.936983
                       1     beta  0          1.000      -4.140640   -112.672541
                       2     beta  0          1.000      -0.176372     -4.799339

                       1    alpha  1          3.000      -2.578739    -70.171064
                       1     beta  1          3.000      -2.547579    -69.323162

                       1    alpha  2          4.350      -0.327039     -8.899191
                       1     beta  2          3.650      -0.300569     -8.178887


 Total Electron Density at R=0:                                         0.030422

 Guess for atomic kind: Ni_b

 Electronic structure
    Total number of core electrons                                         10.00
    Total number of valence electrons                                      18.00
    Total number of electrons                                              28.00
    Multiplicity                                                         doublet
    Alpha Electrons
    S   [  1.00  1.00] 1.00  1.00
    P   [  3.00] 3.00
    D      4.25
    Beta Electrons
    S   [  1.00  1.00] 1.00  1.00
    P   [  3.00] 3.00
    D      3.75


 *******************************************************************************
                  Iteration          Convergence                     Energy [au]
 *******************************************************************************
                          1         1.51687                    -167.065012761055
                          2         14.9817                    -156.620431300845
                          3         2.25575                    -168.317311438693
                          4        0.189210                    -168.607926092750
                          5        0.708658E-01                -168.610773319290
                          6        0.122256E-01                -168.611238205502
                          7        0.598421E-02                -168.611272268995
                          8        0.528277E-02                -168.611272438110
                          9        0.104644E-02                -168.611275321653
                         10        0.260234E-02                -168.611274926630
                         11        0.975322E-03                -168.611275328217
                         12        0.161067E-03                -168.611275447773
                         13        0.147413E-03                -168.611275446839
                         14        0.115114E-03                -168.611275449434
                         15        0.167217E-03                -168.611275445436
                         16        0.255374E-04                -168.611275450531
                         17        0.418369E-04                -168.611275450414
                         18        0.393709E-04                -168.611275450477
                         19        0.239931E-04                -168.611275450542
                         20        0.173885E-04                -168.611275450557
                         21        0.851368E-05                -168.611275450578
                         22        0.849928E-05                -168.611275450580
                         23        0.544937E-05                -168.611275450584
                         24        0.540003E-05                -168.611275450586
                         25        0.613371E-05                -168.611275450584
                         26        0.311593E-06                -168.611275450588

 Energy components [Hartree]           Total Energy ::         -168.611275450588
                                        Band Energy ::          -26.568680144499
                                     Kinetic Energy ::           97.303659243130
                                   Potential Energy ::         -265.914934693718
                                      Virial (-V/T) ::            2.732835915546
                                        Core Energy ::         -299.566189183323
                                          XC Energy ::          -16.224592878785
                                     Coulomb Energy ::          147.179506611520
                       Total Pseudopotential Energy ::         -396.956189041778
                       Local Pseudopotential Energy ::         -362.645043136649
                    Nonlocal Pseudopotential Energy ::          -34.311145905129
                                        Confinement ::            0.863406153250

 Orbital energies  State     Spin  L     Occupation   Energy[a.u.]    Energy[eV]

                       1    alpha  0          1.000      -4.168335   -113.426177
                       2    alpha  0          1.000      -0.180730     -4.917906
                       1     beta  0          1.000      -4.145459   -112.803683
                       2     beta  0          1.000      -0.177117     -4.819606

                       1    alpha  1          3.000      -2.574525    -70.056390
                       1     beta  1          3.000      -2.552268    -69.450746

                       1    alpha  2          4.250      -0.323446     -8.801405
                       1     beta  2          3.750      -0.304537     -8.286881


 Total Electron Density at R=0:                                         0.030429

 Spin 1
 Re-scaling the density matrix to get the right number of electrons for spin 1
                  # Electrons              Trace(P)               Scaling factor
                        297.600             297.600                        1.000

 Spin 2
 Re-scaling the density matrix to get the right number of electrons for spin 2
                  # Electrons              Trace(P)               Scaling factor
                        278.400             278.400                        1.000


 SCF WAVEFUNCTION OPTIMIZATION

  Step     Update method      Time    Convergence         Total energy    Change
  ------------------------------------------------------------------------------
     1 NoMix/Diag. 0.40E+00    2.4     0.87318318     -5426.4441344177 -5.43E+03
     2 Broy./Diag. 0.40E+00    1.5     0.32694738     -5353.0835503661  7.34E+01
[...]
   122 Broy./Diag. 0.40E+00    1.5     0.00420611     -5417.7976059242 -1.94E-02
   123 Broy./Diag. 0.40E+00    1.5     0.00452298     -5417.7708455396  2.68E-02
   124 Broy./Diag. 0.40E+00    1.5     0.00535345     -5417.7906101051 -1.98E-02
   125 Broy./Diag. 0.40E+00    1.5     0.00423729     -5417.7751256698  1.55E-02
   126 Broy./Diag. 0.40E+00    1.5     0.00424580     -5417.7887029404 -1.36E-02
   127 Broy./Diag. 0.40E+00    1.5     0.00389060     -5417.7863558362  2.35E-03
   128 Broy./Diag. 0.40E+00    1.5     0.00315615     -5417.7829630946  3.39E-03
   129 Broy./Diag. 0.40E+00    1.5     0.00523563     -5417.7743452599  8.62E-03
   130 Broy./Diag. 0.40E+00    1.5     0.00355928     -5417.7552307214  1.91E-02
   131 Broy./Diag. 0.40E+00    1.5     0.00341609     -5417.7985281896 -4.33E-02
   132 Broy./Diag. 0.40E+00    1.5     0.00483139     -5417.8004503625 -1.92E-03
   133 Broy./Diag. 0.40E+00    1.5     0.00425676     -5417.7692643917  3.12E-02
   134 Broy./Diag. 0.40E+00    1.5     0.00441460     -5417.7666385991  2.63E-03
   135 Broy./Diag. 0.40E+00    1.5     0.00316677     -5417.7659729329  6.66E-04
   136 Broy./Diag. 0.40E+00    1.5     0.00407382     -5417.7615499571  4.42E-03
   137 Broy./Diag. 0.40E+00    1.5     0.00299391     -5417.7726836802 -1.11E-02
   138 Broy./Diag. 0.40E+00    1.5     0.00289766     -5417.7916606777 -1.90E-02
   139 Broy./Diag. 0.40E+00    1.5     0.00348857     -5417.7814771346  1.02E-02
   140 Broy./Diag. 0.40E+00    1.5     0.00466194     -5417.7834441287 -1.97E-03
   141 Broy./Diag. 0.40E+00    1.5     0.00427800     -5417.7659210939  1.75E-02
   142 Broy./Diag. 0.40E+00    1.5     0.00411963     -5417.7647748567  1.15E-03
   143 Broy./Diag. 0.40E+00    1.5     0.00529650     -5417.7695700400 -4.80E-03
   144 Broy./Diag. 0.40E+00    1.5     0.00347334     -5417.8039806118 -3.44E-02
   145 Broy./Diag. 0.40E+00    1.5     0.00285112     -5417.7799012258  2.41E-02
   146 Broy./Diag. 0.40E+00    1.5     0.00416782     -5417.7622484370  1.77E-02
   147 Broy./Diag. 0.40E+00    1.5     0.00411766     -5417.7868203552 -2.46E-02
   148 Broy./Diag. 0.40E+00    1.5     0.00482374     -5417.7760201592  1.08E-02
   149 Broy./Diag. 0.40E+00    1.5     0.00740590     -5417.7598328386  1.62E-02
   150 Broy./Diag. 0.40E+00    1.5     0.00563613     -5417.7912530631 -3.14E-02
   151 Broy./Diag. 0.40E+00    1.5     0.00657741     -5417.7895447858  1.71E-03
   152 Broy./Diag. 0.40E+00    1.5     0.00734690     -5417.7586984014  3.08E-02
   153 Broy./Diag. 0.40E+00    1.5     0.00659318     -5417.7807491631 -2.21E-02
   154 Broy./Diag. 0.40E+00    1.5     0.00873304     -5417.8166594670 -3.59E-02
   155 Broy./Diag. 0.40E+00    1.5     0.00737235     -5417.7396440701  7.70E-02
   156 Broy./Diag. 0.40E+00    1.5     0.00575102     -5417.7744257339 -3.48E-02
   157 Broy./Diag. 0.40E+00    1.5     0.00458625     -5417.7930672419 -1.86E-02
   158 Broy./Diag. 0.40E+00    1.5     0.00458233     -5417.8016219614 -8.55E-03
   159 Broy./Diag. 0.40E+00    1.5     0.00707795     -5417.7603365643  4.13E-02
   160 Broy./Diag. 0.40E+00    1.5     0.00541574     -5417.7909323559 -3.06E-02
   161 Broy./Diag. 0.40E+00    1.5     0.00603800     -5417.7714918190  1.94E-02
   162 Broy./Diag. 0.40E+00    1.5     0.00435734     -5417.7747112168 -3.22E-03
   163 Broy./Diag. 0.40E+00    1.5     0.00430038     -5417.7791577801 -4.45E-03
   164 Broy./Diag. 0.40E+00    1.5     0.00604988     -5417.7869551162 -7.80E-03
   165 Broy./Diag. 0.40E+00    1.5     0.00596901     -5417.7920500060 -5.09E-03
   166 Broy./Diag. 0.40E+00    1.5     0.00647572     -5417.7573891746  3.47E-02
   167 Broy./Diag. 0.40E+00    1.5     0.00458896     -5417.7886929225 -3.13E-02
   168 Broy./Diag. 0.40E+00    1.5     0.00348627     -5417.7926621047 -3.97E-03
   169 Broy./Diag. 0.40E+00    1.5     0.00391907     -5417.7505231632  4.21E-02
   170 Broy./Diag. 0.40E+00    1.5     0.00349041     -5417.7919992959 -4.15E-02
   171 Broy./Diag. 0.40E+00    1.5     0.00393044     -5417.7746152644  1.74E-02
   172 Broy./Diag. 0.40E+00    1.5     0.00383066     -5417.7793034741 -4.69E-03
   173 Broy./Diag. 0.40E+00    1.5     0.00328616     -5417.7803842545 -1.08E-03
   174 Broy./Diag. 0.40E+00    1.5     0.00436306     -5417.7796669714  7.17E-04
   175 Broy./Diag. 0.40E+00    1.5     0.00465010     -5417.7780775484  1.59E-03
   176 Broy./Diag. 0.40E+00    1.5     0.00417653     -5417.7729991209  5.08E-03
   177 Broy./Diag. 0.40E+00    1.5     0.00422968     -5417.7824962124 -9.50E-03
   178 Broy./Diag. 0.40E+00    1.5     0.00378873     -5417.7873907766 -4.89E-03
   179 Broy./Diag. 0.40E+00    1.5     0.00299123     -5417.7667462333  2.06E-02
   180 Broy./Diag. 0.40E+00    1.5     0.00222598     -5417.7863397631 -1.96E-02
   181 Broy./Diag. 0.40E+00    1.5     0.00245867     -5417.7712019915  1.51E-02
   182 Broy./Diag. 0.40E+00    1.5     0.00357130     -5417.7847416389 -1.35E-02
   183 Broy./Diag. 0.40E+00    1.5     0.00284253     -5417.7759382695  8.80E-03
   184 Broy./Diag. 0.40E+00    1.5     0.00328824     -5417.7755808424  3.57E-04
   185 Broy./Diag. 0.40E+00    1.5     0.00286031     -5417.7881778467 -1.26E-02
   186 Broy./Diag. 0.40E+00    1.5     0.00248032     -5417.7638493517  2.43E-02
   187 Broy./Diag. 0.40E+00    1.5     0.00254810     -5417.7873902989 -2.35E-02
   188 Broy./Diag. 0.40E+00    1.5     0.00288825     -5417.7788758184  8.51E-03
   189 Broy./Diag. 0.40E+00    1.5     0.00317039     -5417.7775296649  1.35E-03
   190 Broy./Diag. 0.40E+00    1.5     0.00338874     -5417.7687554760  8.77E-03
   191 Broy./Diag. 0.40E+00    1.5     0.00340659     -5417.7937778941 -2.50E-02
   192 Broy./Diag. 0.40E+00    1.5     0.00361687     -5417.7683987282  2.54E-02
   193 Broy./Diag. 0.40E+00    1.5     0.00245432     -5417.7865525495 -1.82E-02
   194 Broy./Diag. 0.40E+00    1.5     0.00373767     -5417.7722249605  1.43E-02
   195 Broy./Diag. 0.40E+00    1.5     0.00478722     -5417.7786309056 -6.41E-03
   196 Broy./Diag. 0.40E+00    1.5     0.00401504     -5417.7954115757 -1.68E-02
   197 Broy./Diag. 0.40E+00    1.5     0.00402645     -5417.7567399674  3.87E-02
   198 Broy./Diag. 0.40E+00    1.5     0.00485145     -5417.7924275262 -3.57E-02
   199 Broy./Diag. 0.40E+00    1.5     0.00602316     -5417.7795637536  1.29E-02
   200 Broy./Diag. 0.40E+00    1.5     0.00695552     -5417.7816499633 -2.09E-03
   201 Broy./Diag. 0.40E+00    1.5     0.00747926     -5417.7549464120  2.67E-02
   202 Broy./Diag. 0.40E+00    1.5     0.00885260     -5417.8142135596 -5.93E-02
   203 Broy./Diag. 0.40E+00    1.5     0.00867026     -5417.7533246494  6.09E-02
   204 Broy./Diag. 0.40E+00    1.5     0.00599429     -5417.7947671644 -4.14E-02
   205 Broy./Diag. 0.40E+00    1.5     0.00956956     -5417.7617858647  3.30E-02
   206 Broy./Diag. 0.40E+00    1.5     0.01311927     -5417.7675697961 -5.78E-03
   207 Broy./Diag. 0.40E+00    1.5     0.01004013     -5417.8327922622 -6.52E-02
   208 Broy./Diag. 0.40E+00    1.5     0.01046416     -5417.7227803064  1.10E-01
   209 Broy./Diag. 0.40E+00    1.5     0.01544586     -5417.8015422050 -7.88E-02
   210 Broy./Diag. 0.40E+00    1.5     0.01496309     -5417.7802481517  2.13E-02
   211 Broy./Diag. 0.40E+00    1.5     0.02193015     -5417.8040491687 -2.38E-02
   212 Broy./Diag. 0.40E+00    1.5     0.01899028     -5417.6977387600  1.06E-01
   213 Broy./Diag. 0.40E+00    1.5     0.02679585     -5417.8766393264 -1.79E-01
   214 Broy./Diag. 0.40E+00    1.5     0.02303288     -5417.7173024931  1.59E-01
   215 Broy./Diag. 0.40E+00    1.5     0.02009301     -5417.8247767492 -1.07E-01
   216 Broy./Diag. 0.40E+00    1.5     0.03000911     -5417.7378040576  8.70E-02
   217 Broy./Diag. 0.40E+00    1.5     0.03635963     -5417.7008011468  3.70E-02
   218 Broy./Diag. 0.40E+00    1.5     0.02654084     -5417.9391736798 -2.38E-01
   219 Broy./Diag. 0.40E+00    1.5     0.03731086     -5417.6230112127  3.16E-01
   220 Broy./Diag. 0.40E+00    1.5     0.04548466     -5417.7982450027 -1.75E-01
   221 Broy./Diag. 0.40E+00    1.5     0.04136202     -5417.7693070707  2.89E-02
   222 Broy./Diag. 0.40E+00    1.5     0.06322416     -5417.9140347977 -1.45E-01
   223 Broy./Diag. 0.40E+00    1.5     0.06193426     -5417.5242049729  3.90E-01
   224 Broy./Diag. 0.40E+00    1.5     0.07808019     -5418.0500046186 -5.26E-01
   225 Broy./Diag. 0.40E+00    1.5     0.06188543     -5417.6144711007  4.36E-01
   226 Broy./Diag. 0.40E+00    1.5     0.07739700     -5417.9037512144 -2.89E-01
   227 Broy./Diag. 0.40E+00    1.5     0.09882397     -5417.7218735866  1.82E-01
   228 Broy./Diag. 0.40E+00    1.5     0.10394787     -5417.4248617695  2.97E-01
   229 Broy./Diag. 0.40E+00    1.5     0.08858035     -5418.2743818737 -8.50E-01
   230 Broy./Diag. 0.40E+00    1.5     0.13139701     -5417.4042065927  8.70E-01
   231 Broy./Diag. 0.40E+00    1.5     0.13700616     -5417.7253809641 -3.21E-01
   232 Broy./Diag. 0.40E+00    1.5     0.16448945     -5417.6459596094  7.94E-02
   233 Broy./Diag. 0.40E+00    1.5     0.12863491     -5418.4227359332 -7.77E-01
   234 Broy./Diag. 0.40E+00    1.5     0.19001899     -5417.0922415387  1.33E+00
   235 Broy./Diag. 0.40E+00    1.5     0.17915145     -5418.5130827117 -1.42E+00
   236 Broy./Diag. 0.40E+00    1.5     0.16018534     -5417.2539772265  1.26E+00
   237 Broy./Diag. 0.40E+00    1.5     0.23146164     -5418.0795376228 -8.26E-01
   238 Broy./Diag. 0.40E+00    1.5     0.27020544     -5417.8201554192  2.59E-01
   239 Broy./Diag. 0.40E+00    1.5     0.32270044     -5416.4927729993  1.33E+00
   240 Broy./Diag. 0.40E+00    1.5     0.35691464     -5419.3370009259 -2.84E+00
   241 Broy./Diag. 0.40E+00    1.5     0.42617056     -5417.1506016784  2.19E+00
   242 Broy./Diag. 0.40E+00    1.5     0.45787981     -5417.2308328915 -8.02E-02
   243 Broy./Diag. 0.40E+00    1.5     0.43987331     -5416.6534305076  5.77E-01
   244 Broy./Diag. 0.40E+00    1.5     0.40074509     -5420.9223138011 -4.27E+00
   245 Broy./Diag. 0.40E+00    1.5     0.33513675     -5416.0154640593  4.91E+00
   246 Broy./Diag. 0.40E+00    1.5     0.46896301     -5418.4812317666 -2.47E+00
   247 Broy./Diag. 0.40E+00    1.5     0.55368830     -5416.0355963489  2.45E+00
   248 Broy./Diag. 0.40E+00    1.5     0.61849512     -5418.8288840616 -2.79E+00
   249 Broy./Diag. 0.40E+00    1.5     0.73042714     -5419.4119866515 -5.83E-01
   250 Broy./Diag. 0.40E+00    1.5     0.77873787     -5413.4107147985  6.00E+00
   251 Broy./Diag. 0.40E+00    1.5     0.67689213     -5420.4336954643 -7.02E+00
   252 Broy./Diag. 0.40E+00    1.5     0.68621710     -5416.7548617114  3.68E+00
   253 Broy./Diag. 0.40E+00    1.5     0.76996798     -5417.7741286368 -1.02E+00
   254 Broy./Diag. 0.40E+00    1.5     0.78726034     -5415.9983548783  1.78E+00
   255 Broy./Diag. 0.40E+00    1.5     0.74038333     -5423.2973159075 -7.30E+00
   256 Broy./Diag. 0.40E+00    1.5     0.55515266     -5411.7053913263  1.16E+01
   257 Broy./Diag. 0.40E+00    1.5     0.60690442     -5422.2966302255 -1.06E+01
   258 Broy./Diag. 0.40E+00    1.5     0.72333725     -5415.2310223011  7.07E+00
   259 Broy./Diag. 0.40E+00    1.5     0.72088548     -5415.3889948843 -1.58E-01
   260 Broy./Diag. 0.40E+00    1.5     0.74426102     -5418.4549985664 -3.07E+00
   261 Broy./Diag. 0.40E+00    1.5     0.79980703     -5415.0897310420  3.37E+00
   262 Broy./Diag. 0.40E+00    1.5     0.88282814     -5422.4384498924 -7.35E+00
   263 Broy./Diag. 0.40E+00    1.5     0.91804836     -5411.5013017384  1.09E+01
   264 Broy./Diag. 0.40E+00    1.5     0.80029876     -5415.1031305625 -3.60E+00
   265 Broy./Diag. 0.40E+00    1.5     0.87553637     -5414.1705231299  9.33E-01
   266 Broy./Diag. 0.40E+00    1.5     0.80552936     -5425.3978687602 -1.12E+01
   267 Broy./Diag. 0.40E+00    1.5     0.78790050     -5413.4732522998  1.19E+01
   268 Broy./Diag. 0.40E+00    1.5     0.81296235     -5424.8122248374 -1.13E+01
   269 Broy./Diag. 0.40E+00    1.5     0.72132649     -5419.9825578157  4.83E+00
   270 Broy./Diag. 0.40E+00    1.5     0.73613652     -5412.8213989243  7.16E+00
   271 Broy./Diag. 0.40E+00    1.5     0.74488337     -5412.6923503226  1.29E-01
   272 Broy./Diag. 0.40E+00    1.5     0.78584699     -5414.3084230717 -1.62E+00
   273 Broy./Diag. 0.40E+00    1.5     0.75714117     -5428.6468631818 -1.43E+01
   274 Broy./Diag. 0.40E+00    1.5     0.67809865     -5416.8146826285  1.18E+01
   275 Broy./Diag. 0.40E+00    1.5     0.74859375     -5411.8999438247  4.91E+00
   276 Broy./Diag. 0.40E+00    1.5     0.76312910     -5414.4855135084 -2.59E+00
   277 Broy./Diag. 0.40E+00    1.5     0.76056593     -5428.2343342047 -1.37E+01
   278 Broy./Diag. 0.40E+00    1.5     0.56192032     -5426.1739337540  2.06E+00
   279 Broy./Diag. 0.40E+00    1.5     0.58691648     -5409.8090211520  1.64E+01
   280 Broy./Diag. 0.40E+00    1.5     0.78504561     -5417.6072484589 -7.80E+00
   281 Broy./Diag. 0.40E+00    1.5     0.84981401     -5416.0920981449  1.52E+00
   282 Broy./Diag. 0.40E+00    1.5     0.72458194     -5420.1576157999 -4.07E+00
   283 Broy./Diag. 0.40E+00    1.5     0.74620843     -5415.9554014460  4.20E+00
   284 Broy./Diag. 0.40E+00    1.5     0.54325972     -5413.6402176896  2.32E+00
   285 Broy./Diag. 0.40E+00    1.5     0.64370165     -5421.3749897270 -7.73E+00
   286 Broy./Diag. 0.40E+00    1.5     0.70076984     -5417.6503169293  3.72E+00
   287 Broy./Diag. 0.40E+00    1.5     0.74514705     -5418.4861338910 -8.36E-01
   288 Broy./Diag. 0.40E+00    1.5     0.77808483     -5421.4398600650 -2.95E+00
   289 Broy./Diag. 0.40E+00    1.5     0.77999993     -5419.8691787856  1.57E+00
   290 Broy./Diag. 0.40E+00    1.5     0.81383746     -5410.4732245842  9.40E+00
   291 Broy./Diag. 0.40E+00    1.5     0.80619732     -5419.5959888023 -9.12E+00
   292 Broy./Diag. 0.40E+00    1.5     0.86178819     -5408.7852018426  1.08E+01
   293 Broy./Diag. 0.40E+00    1.5     0.74410095     -5421.6033573218 -1.28E+01
   294 Broy./Diag. 0.40E+00    1.5     0.73472293     -5417.0558254583  4.55E+00
   295 Broy./Diag. 0.40E+00    1.5     0.76034926     -5417.2901462983 -2.34E-01
   296 Broy./Diag. 0.40E+00    1.5     0.86649218     -5418.0409805455 -7.51E-01
   297 Broy./Diag. 0.40E+00    1.5     0.90621869     -5413.1843311002  4.86E+00
   298 Broy./Diag. 0.40E+00    1.5     0.59385493     -5415.4853623344 -2.30E+00
   299 Broy./Diag. 0.40E+00    1.5     0.81621512     -5413.3080629403  2.18E+00
   300 Broy./Diag. 0.40E+00    1.5     0.82783404     -5419.8719993967 -6.56E+00
   301 Broy./Diag. 0.40E+00    1.5     0.72179072     -5418.2291838363  1.64E+00
   302 Broy./Diag. 0.40E+00    1.5     0.79204496     -5425.5905574449 -7.36E+00
   303 Broy./Diag. 0.40E+00    1.5     0.63109825     -5420.3801259985  5.21E+00
   304 Broy./Diag. 0.40E+00    1.5     0.82743020     -5421.7982608256 -1.42E+00
   305 Broy./Diag. 0.40E+00    1.5     0.85571855     -5417.0530311307  4.75E+00
   306 Broy./Diag. 0.40E+00    1.5     0.75647477     -5408.8156989896  8.24E+00
   307 Broy./Diag. 0.40E+00    1.5     0.80101260     -5402.7944153555  6.02E+00
   308 Broy./Diag. 0.40E+00    1.5     0.71341539     -5412.6570441991 -9.86E+00
   309 Broy./Diag. 0.40E+00    1.5     0.58204390     -5426.8162066914 -1.42E+01
   310 Broy./Diag. 0.40E+00    1.5     0.70095406     -5422.4888415321  4.33E+00
   311 Broy./Diag. 0.40E+00    1.5     0.52996364     -5419.5582099655  2.93E+00
   312 Broy./Diag. 0.40E+00    1.5     0.57314285     -5422.1742975718 -2.62E+00
   313 Broy./Diag. 0.40E+00    1.5     0.36210942     -5418.8121788808  3.36E+00
   314 Broy./Diag. 0.40E+00    1.5     0.58324482     -5416.3853287319  2.43E+00
   315 Broy./Diag. 0.40E+00    1.5     0.58655739     -5415.0303705971  1.35E+00
   316 Broy./Diag. 0.40E+00    1.5     0.70075500     -5422.6717029480 -7.64E+00
   317 Broy./Diag. 0.40E+00    1.5     0.76370627     -5418.3899585710  4.28E+00
   318 Broy./Diag. 0.40E+00    1.5     0.75724750     -5415.3598429497  3.03E+00
   319 Broy./Diag. 0.40E+00    1.5     0.88447568     -5415.5424791498 -1.83E-01
   320 Broy./Diag. 0.40E+00    1.5     0.62313880     -5420.3909934230 -4.85E+00
   321 Broy./Diag. 0.40E+00    1.5     0.75707460     -5410.2741153267  1.01E+01
   322 Broy./Diag. 0.40E+00    1.5     0.68272563     -5420.9999893163 -1.07E+01
   323 Broy./Diag. 0.40E+00    1.5     0.65800533     -5412.7629323507  8.24E+00
   324 Broy./Diag. 0.40E+00    1.5     0.55518172     -5423.9294253014 -1.12E+01
   325 Broy./Diag. 0.40E+00    1.5     0.66604088     -5423.7167043191  2.13E-01
   326 Broy./Diag. 0.40E+00    1.5     0.69398440     -5419.0652124159  4.65E+00
   327 Broy./Diag. 0.40E+00    1.5     0.70736559     -5415.5458078311  3.52E+00
   328 Broy./Diag. 0.40E+00    1.5     0.62639545     -5410.8469917348  4.70E+00
   329 Broy./Diag. 0.40E+00    1.5     0.70030549     -5417.6252680969 -6.78E+00
   330 Broy./Diag. 0.40E+00    1.5     0.77836996     -5413.0975016027  4.53E+00
   331 Broy./Diag. 0.40E+00    1.5     0.67745457     -5422.2441279064 -9.15E+00
   332 Broy./Diag. 0.40E+00    1.5     0.71135219     -5422.1730393163  7.11E-02
   333 Broy./Diag. 0.40E+00    1.5     0.53582047     -5414.1482214463  8.02E+00
   334 Broy./Diag. 0.40E+00    1.5     0.83401038     -5418.8045625642 -4.66E+00
   335 Broy./Diag. 0.40E+00    1.5     0.84520193     -5412.6392117021  6.17E+00
   336 Broy./Diag. 0.40E+00    1.5     0.62095622     -5420.6075388465 -7.97E+00
   337 Broy./Diag. 0.40E+00    1.5     0.79073826     -5415.7493726939  4.86E+00
   338 Broy./Diag. 0.40E+00    1.5     0.84289470     -5429.0905790874 -1.33E+01
   339 Broy./Diag. 0.40E+00    1.5     0.84657914     -5423.9197218774  5.17E+00
   340 Broy./Diag. 0.40E+00    1.5     0.82068179     -5420.6052071601  3.31E+00
   341 Broy./Diag. 0.40E+00    1.5     0.85911760     -5418.0620524729  2.54E+00
   342 Broy./Diag. 0.40E+00    1.5     0.89385899     -5415.1551578557  2.91E+00
   343 Broy./Diag. 0.40E+00    1.5     0.91822604     -5410.4732231631  4.68E+00
   344 Broy./Diag. 0.40E+00    1.5     0.78161329     -5408.9909338621  1.48E+00
   345 Broy./Diag. 0.40E+00    1.5     0.85030984     -5410.7400514788 -1.75E+00
   346 Broy./Diag. 0.40E+00    1.5     0.83670237     -5415.8755920548 -5.14E+00
   347 Broy./Diag. 0.40E+00    1.5     0.88864585     -5408.2023553563  7.67E+00
   348 Broy./Diag. 0.40E+00    1.5     0.81413967     -5427.0046812215 -1.88E+01
   349 Broy./Diag. 0.40E+00    1.5     0.73812854     -5414.0282113979  1.30E+01
   350 Broy./Diag. 0.40E+00    1.5     0.88328761     -5423.8113707234 -9.78E+00
   351 Broy./Diag. 0.40E+00    1.5     0.96316478     -5431.5079576460 -7.70E+00
   352 Broy./Diag. 0.40E+00    1.5     0.96612957     -5436.6726528003 -5.16E+00
   353 Broy./Diag. 0.40E+00    1.5     0.88852158     -5418.7039288603  1.80E+01
   354 Broy./Diag. 0.40E+00    1.5     0.88880867     -5405.5900381114  1.31E+01
   355 Broy./Diag. 0.40E+00    1.5     0.88613231     -5411.2957322078 -5.71E+00
   356 Broy./Diag. 0.40E+00    1.5     0.90006941     -5422.4388994170 -1.11E+01
   357 Broy./Diag. 0.40E+00    1.5     0.89225111     -5405.4030285316  1.70E+01
   358 Broy./Diag. 0.40E+00    1.5     0.84310686     -5412.7788418217 -7.38E+00
   359 Broy./Diag. 0.40E+00    1.5     0.85952093     -5400.9649289304  1.18E+01
   360 Broy./Diag. 0.40E+00    1.5     0.86297086     -5421.4664548363 -2.05E+01
   361 Broy./Diag. 0.40E+00    1.5     0.69645388     -5435.0439781109 -1.36E+01
   362 Broy./Diag. 0.40E+00    1.5     0.74034464     -5412.0952240065  2.29E+01
   363 Broy./Diag. 0.40E+00    1.5     0.87902230     -5419.8811669442 -7.79E+00
   364 Broy./Diag. 0.40E+00    1.5     0.95307120     -5410.1204109456  9.76E+00
   365 Broy./Diag. 0.40E+00    1.5     0.94210977     -5416.4600080866 -6.34E+00
   366 Broy./Diag. 0.40E+00    1.5     0.88800669     -5421.5706926272 -5.11E+00
   367 Broy./Diag. 0.40E+00    1.5     0.92322072     -5412.4228063209  9.15E+00
