 DBCSR| CPU Multiplication driver                                           XSMM (U)
 DBCSR| Multrec recursion limit                                              512 (U)
 DBCSR| Multiplication stack size                                           1000 (D)
 DBCSR| Maximum elements for images                                    UNLIMITED (U)
 DBCSR| Multiplicative factor virtual images                                   1 (U)
 DBCSR| Use multiplication densification                                       T (D)
 DBCSR| Multiplication size stacks                                             3 (U)
 DBCSR| Use memory pool for CPU allocation                                     F (U)
 DBCSR| Number of 3D layers                                               SINGLE (U)
 DBCSR| Use MPI memory allocation                                              F (U)
 DBCSR| Use RMA algorithm                                                      F (U)
 DBCSR| Use Communication thread                                               T (U)
 DBCSR| Communication thread load                                             87 (D)
 DBCSR| MPI: My process id                                                     0
 DBCSR| MPI: Number of processes                                             128
 DBCSR| OMP: Current number of threads                                         1
 DBCSR| OMP: Max number of threads                                             1
 DBCSR| Split modifier for TAS multiplication algorithm                  1.0E+00 (U)


  **** **** ******  **  PROGRAM STARTED AT               2023-02-15 16:38:12.782
 ***** ** ***  *** **   PROGRAM STARTED ON                             nid006725
 **    ****   ******    PROGRAM STARTED BY                                cahart
 ***** **    ** ** **   PROGRAM PROCESS ID                                 81478
  **** **  *******  **  PROGRAM STARTED IN /mnt/lustre/a2fs-work2/work/e05/e05/c
                                           ahart/postdoc/masters/ni/archer2/slab
                                           /optimise/magnetisation/scf_1e-4_temp
                                           -2000_mos-1000_alpha-0.08_beta-1.5_pe
                                           riodic-xyz/search/0.32_0.8

 CP2K| version string:                 CP2K version 2023.1 (Development Version)
 CP2K| source code revision number:                                  git:964cd58
 CP2K| cp2kflags: omp libint fftw3 libxc elpa parallel scalapack xsmm plumed2 mk
 CP2K|            l
 CP2K| is freely available from                            https://www.cp2k.org/
 CP2K| Program compiled at                          Mon 13 Feb 17:05:14 GMT 2023
 CP2K| Program compiled on                                                  ln01
 CP2K| Program compiled for                                              ARCHER2
 CP2K| Data directory path    /work/e05/e05/cahart/cp2k/cp2k-2023.1/cp2k-2023.1-
 CP2K| Input file name                                                  cp2k.inp

 GLOBAL| Force Environment number                                              1
 GLOBAL| Basis set file name                                        BASIS_MOLOPT
 GLOBAL| Potential file name                                      GTH_POTENTIALS
 GLOBAL| MM Potential file name                                     MM_POTENTIAL
 GLOBAL| Coordinate file name                                      __STD_INPUT__
 GLOBAL| Method name                                                        CP2K
 GLOBAL| Project name                                                    Ni_bulk
 GLOBAL| Run type                                                         ENERGY
 GLOBAL| FFT library                                                       FFTW3
 GLOBAL| Diagonalization library                                            ELPA
 GLOBAL| DGEMM library                                                      BLAS
 GLOBAL| Minimum number of eigenvectors for ELPA usage                        16
 GLOBAL| Orthonormality check for eigenvectors                          DISABLED
 GLOBAL| Matrix multiplication library                                 ScaLAPACK
 GLOBAL| All-to-all communication in single precision                          F
 GLOBAL| FFTs using library dependent lengths                                  F
 GLOBAL| Grid backend                                                       AUTO
 GLOBAL| Global print level                                               MEDIUM
 GLOBAL| MPI I/O enabled                                                       T
 GLOBAL| Total number of message passing processes                           128
 GLOBAL| Number of threads for this process                                    1
 GLOBAL| This output is from process                                           0
 GLOBAL| Stack size for threads created by OpenMP (OMP_STACKSIZE)        default
 GLOBAL| CPU model name                          AMD EPYC 7742 64-Core Processor
 GLOBAL| CPUID                                                              1002

 MEMORY| system memory details [Kb]
 MEMORY|                        rank 0           min           max       average
 MEMORY| MemTotal            263528088     263528088     263528088     263528088
 MEMORY| MemFree             238904016     238904016     238904016     238904016
 MEMORY| Buffers                 31568         31568         31568         31568
 MEMORY| Cached                 687120        687120        687120        687120
 MEMORY| Slab                  1575924       1575924       1575924       1575924
 MEMORY| SReclaimable           101804        101804        101804        101804
 MEMORY| MemLikelyFree       239724508     239724508     239724508     239724508


 *** Fundamental physical constants (SI units) ***

 *** Literature: B. J. Mohr and B. N. Taylor,
 ***             CODATA recommended values of the fundamental physical
 ***             constants: 2006, Web Version 5.1
 ***             http://physics.nist.gov/constants

 Speed of light in vacuum [m/s]                             2.99792458000000E+08
 Magnetic constant or permeability of vacuum [N/A**2]       1.25663706143592E-06
 Electric constant or permittivity of vacuum [F/m]          8.85418781762039E-12
 Planck constant (h) [J*s]                                  6.62606896000000E-34
 Planck constant (h-bar) [J*s]                              1.05457162825177E-34
 Elementary charge [C]                                      1.60217648700000E-19
 Electron mass [kg]                                         9.10938215000000E-31
 Electron g factor [ ]                                     -2.00231930436220E+00
 Proton mass [kg]                                           1.67262163700000E-27
 Fine-structure constant                                    7.29735253760000E-03
 Rydberg constant [1/m]                                     1.09737315685270E+07
 Avogadro constant [1/mol]                                  6.02214179000000E+23
 Boltzmann constant [J/K]                                   1.38065040000000E-23
 Atomic mass unit [kg]                                      1.66053878200000E-27
 Bohr radius [m]                                            5.29177208590000E-11

 *** Conversion factors ***

 [u] -> [a.u.]                                              1.82288848426455E+03
 [Angstrom] -> [Bohr] = [a.u.]                              1.88972613288564E+00
 [a.u.] = [Bohr] -> [Angstrom]                              5.29177208590000E-01
 [a.u.] -> [s]                                              2.41888432650478E-17
 [a.u.] -> [fs]                                             2.41888432650478E-02
 [a.u.] -> [J]                                              4.35974393937059E-18
 [a.u.] -> [N]                                              8.23872205491840E-08
 [a.u.] -> [K]                                              3.15774647902944E+05
 [a.u.] -> [kJ/mol]                                         2.62549961709828E+03
 [a.u.] -> [kcal/mol]                                       6.27509468713739E+02
 [a.u.] -> [Pa]                                             2.94210107994716E+13
 [a.u.] -> [bar]                                            2.94210107994716E+08
 [a.u.] -> [atm]                                            2.90362800883016E+08
 [a.u.] -> [eV]                                             2.72113838565563E+01
 [a.u.] -> [Hz]                                             6.57968392072181E+15
 [a.u.] -> [1/cm] (wave numbers)                            2.19474631370540E+05
 [a.u./Bohr**2] -> [1/cm]                                   5.14048714338585E+03
 

 CELL_TOP| Volume [angstrom^3]:                                       983.249569
 CELL_TOP| Vector a [angstrom     7.012     0.000     0.000   |a| =     7.011596
 CELL_TOP| Vector b [angstrom     0.000     7.012     0.000   |b| =     7.011596
 CELL_TOP| Vector c [angstrom     0.000     0.000    20.000   |c| =    20.000000
 CELL_TOP| Angle (b,c), alpha [degree]:                                90.000000
 CELL_TOP| Angle (a,c), beta  [degree]:                                90.000000
 CELL_TOP| Angle (a,b), gamma [degree]:                                90.000000
 CELL_TOP| Numerically orthorhombic:                                         YES
 CELL_TOP| Periodicity                                                       XYZ

 GENERATE|  Preliminary Number of Bonds generated:                             0
 GENERATE|  Achieved consistency in connectivity generation.

 CELL| Volume [angstrom^3]:                                           983.249569
 CELL| Vector a [angstrom]:       7.012     0.000     0.000   |a| =     7.011596
 CELL| Vector b [angstrom]:       0.000     7.012     0.000   |b| =     7.011596
 CELL| Vector c [angstrom]:       0.000     0.000    20.000   |c| =    20.000000
 CELL| Angle (b,c), alpha [degree]:                                    90.000000
 CELL| Angle (a,c), beta  [degree]:                                    90.000000
 CELL| Angle (a,b), gamma [degree]:                                    90.000000
 CELL| Numerically orthorhombic:                                             YES
 CELL| Periodicity                                                           XYZ

 CELL_REF| Volume [angstrom^3]:                                       983.249569
 CELL_REF| Vector a [angstrom     7.012     0.000     0.000   |a| =     7.011596
 CELL_REF| Vector b [angstrom     0.000     7.012     0.000   |b| =     7.011596
 CELL_REF| Vector c [angstrom     0.000     0.000    20.000   |c| =    20.000000
 CELL_REF| Angle (b,c), alpha [degree]:                                90.000000
 CELL_REF| Angle (a,c), beta  [degree]:                                90.000000
 CELL_REF| Angle (a,b), gamma [degree]:                                90.000000
 CELL_REF| Numerically orthorhombic:                                         YES
 CELL_REF| Periodicity                                                       XYZ

 *** WARNING in cryssym.F:165 :: Symmetry library SPGLIB not available ***


 *******************************************************************************
                                    Kpoints
 *******************************************************************************
 BRILLOUIN| K-point scheme                                        Monkhorst-Pack
 BRILLOUIN| K-Point grid                                             4    4    1
 BRILLOUIN| Accuracy in Symmetry determination                      0.100000E-05
 BRILLOUIN| K-Point point group symmetrization                               OFF
 BRILLOUIN| Wavefunction type                                            COMPLEX
 BRILLOUIN| List of Kpoints [2 Pi/Bohr]                                        8
 BRILLOUIN| Number           Weight            X              Y              Z
 BRILLOUIN|     1           0.12500       -0.37500       -0.37500        0.00000
 BRILLOUIN|     2           0.12500       -0.37500       -0.12500        0.00000
 BRILLOUIN|     3           0.12500       -0.37500        0.12500        0.00000
 BRILLOUIN|     4           0.12500       -0.37500        0.37500        0.00000
 BRILLOUIN|     5           0.12500       -0.12500       -0.37500        0.00000
 BRILLOUIN|     6           0.12500       -0.12500       -0.12500        0.00000
 BRILLOUIN|     7           0.12500       -0.12500        0.12500        0.00000
 BRILLOUIN|     8           0.12500       -0.12500        0.37500        0.00000
 *******************************************************************************

 *******************************************************************************
 *******************************************************************************
 **                                                                           **
 **     #####                         ##              ##                      **
 **    ##   ##            ##          ##              ##                      **
 **   ##     ##                       ##            ######                    **
 **   ##     ##  ##   ##  ##   #####  ##  ##   ####   ##    #####    #####    **
 **   ##     ##  ##   ##  ##  ##      ## ##   ##      ##   ##   ##  ##   ##   **
 **   ##  ## ##  ##   ##  ##  ##      ####     ###    ##   ######   ######    **
 **    ##  ###   ##   ##  ##  ##      ## ##      ##   ##   ##       ##        **
 **     #######   #####   ##   #####  ##  ##  ####    ##    #####   ##        **
 **           ##                                                    ##        **
 **                                                                           **
 **                                                ... make the atoms dance   **
 **                                                                           **
 **            Copyright (C) by CP2K developers group (2000-2023)             **
 **                      J. Chem. Phys. 152, 194103 (2020)                    **
 **                                                                           **
 *******************************************************************************

 *** WARNING in qs_environment.F:1456 :: Number of electrons will be ***
 *** overwritten by NELEC_ALPHA and NELEC_BETA, multiplicity will be ***
 *** ignored.                                                        ***

 Number of electrons should be                                               576
 Sum of NELEC_ALPHA and NELEC_BETA is                                    576.000

 *** WARNING in qs_environment.F:1488 :: NELEC_ALPHA is not an integer, ***
 *** many features will not be supported.                               ***


 *** WARNING in qs_environment.F:1500 :: NELEC_BETA is not an integer, ***
 *** many features will not be supported.                              ***


 *** WARNING in qs_environment.F:1532 :: More ADDED_MOs requested for beta ***
 *** spin than available.                                                  ***


 *** WARNING in qs_environment.F:1548 :: More added MOs requested than     ***
 *** available. The full set of unoccupied MOs will be used. Use           ***
 *** 'ADDED_MOS -1' to always use all available MOs and to get rid of this ***
 *** warning.                                                              ***


 DFT| Spin unrestricted (spin-polarized) Kohn-Sham calculation               UKS
 DFT| Multiplicity                                                             1
 DFT| Number of spin states                                                    2
 DFT| Charge                                                                   0
 DFT| Self-interaction correction (SIC)                                       NO
 DFT| Cutoffs: density                                              1.000000E-10
 DFT|          gradient                                             1.000000E-10
 DFT|          tau                                                  1.000000E-10
 DFT|          cutoff_smoothing_range                               0.000000E+00
 DFT| XC density smoothing                                                  NONE
 DFT| XC derivatives                                                          PW

 FUNCTIONAL| PBE:
 FUNCTIONAL| J.P.Perdew, K.Burke, M.Ernzerhof, Phys. Rev. Letter, vol. 77, n 18,
 FUNCTIONAL|  pp. 3865-3868, (1996){spin polarized}                             

 vdW POTENTIAL|                                                   Pair Potential
 vdW POTENTIAL|          DFT-D3 (Version 3.1)
 vdW POTENTIAL|          Potential Form: S. Grimme et al, JCP 132: 154104 (2010)
 vdW POTENTIAL|          Zero Damping
 vdW POTENTIAL|          Cutoff Radius [Bohr]:                             20.00
 vdW POTENTIAL|          s6 Scaling Factor:                               1.0000
 vdW POTENTIAL|          sr6 Scaling Factor:                              1.2170
 vdW POTENTIAL|          s8 Scaling Factor:                               0.7220
 vdW POTENTIAL|          Cutoff for CN calculation:                   0.1000E-05

 QS| Method:                                                                 GPW
 QS| Density plane wave grid type                        NON-SPHERICAL FULLSPACE
 QS| Number of grid levels:                                                    5
 QS| Density cutoff [a.u.]:                                                300.0
 QS| Multi grid cutoff [a.u.]: 1) grid level                               300.0
 QS|                           2) grid level                               100.0
 QS|                           3) grid level                                33.3
 QS|                           4) grid level                                11.1
 QS|                           5) grid level                                 3.7
 QS| Grid level progression factor:                                          3.0
 QS| Relative density cutoff [a.u.]:                                        30.0
 QS| Interaction thresholds: eps_pgf_orb:                                1.0E-06
 QS|                         eps_filter_matrix:                          0.0E+00
 QS|                         eps_core_charge:                            1.0E-14
 QS|                         eps_rho_gspace:                             1.0E-12
 QS|                         eps_rho_rspace:                             1.0E-12
 QS|                         eps_gvg_rspace:                             1.0E-06
 QS|                         eps_ppl:                                    1.0E-02
 QS|                         eps_ppnl:                                   1.0E-08


 ATOMIC KIND INFORMATION

  1. Atomic kind: Ni_i                                  Number of atoms:      16

     Orbital Basis Set                                        DZVP-MOLOPT-SR-GTH

       Number of orbital shell sets:                                           1
       Number of orbital shells:                                               8
       Number of primitive Cartesian functions:                                6
       Number of Cartesian basis functions:                                   31
       Number of spherical basis functions:                                   26
       Norm type:                                                              2

       Normalised Cartesian orbitals:

                        Set   Shell   Orbital            Exponent    Coefficient

                          1       1    2s               10.077428      -0.684558
                                                         5.847736      -0.844524
                                                         2.494033       1.088856
                                                         0.988355       0.395503
                                                         0.344978       0.010224
                                                         0.099466      -0.003250

                          1       2    3s               10.077428       0.096747
                                                         5.847736       0.162504
                                                         2.494033      -0.297192
                                                         0.988355      -0.319752
                                                         0.344978       0.088318
                                                         0.099466       0.118587

                          1       3    4s               10.077428       0.036437
                                                         5.847736      -0.381480
                                                         2.494033       0.003759
                                                         0.988355      -1.048256
                                                         0.344978       0.855825
                                                         0.099466      -0.176350

                          1       4    3px              10.077428      -3.133913
                                                         5.847736       3.027656
                                                         2.494033       2.353227
                                                         0.988355       0.554184
                                                         0.344978       0.019462
                                                         0.099466      -0.000291
                          1       4    3py              10.077428      -3.133913
                                                         5.847736       3.027656
                                                         2.494033       2.353227
                                                         0.988355       0.554184
                                                         0.344978       0.019462
                                                         0.099466      -0.000291
                          1       4    3pz              10.077428      -3.133913
                                                         5.847736       3.027656
                                                         2.494033       2.353227
                                                         0.988355       0.554184
                                                         0.344978       0.019462
                                                         0.099466      -0.000291

                          1       5    4px              10.077428      -0.112729
                                                         5.847736      -0.114008
                                                         2.494033      -0.347303
                                                         0.988355      -0.110323
                                                         0.344978       0.154096
                                                         0.099466       0.058386
                          1       5    4py              10.077428      -0.112729
                                                         5.847736      -0.114008
                                                         2.494033      -0.347303
                                                         0.988355      -0.110323
                                                         0.344978       0.154096
                                                         0.099466       0.058386
                          1       5    4pz              10.077428      -0.112729
                                                         5.847736      -0.114008
                                                         2.494033      -0.347303
                                                         0.988355      -0.110323
                                                         0.344978       0.154096
                                                         0.099466       0.058386

                          1       6    4dx2             10.077428       8.232726
                                                         5.847736       9.105758
                                                         2.494033       2.849835
                                                         0.988355       0.554319
                                                         0.344978       0.067245
                                                         0.099466       0.001940
                          1       6    4dxy             10.077428      14.259500
                                                         5.847736      15.771636
                                                         2.494033       4.936060
                                                         0.988355       0.960109
                                                         0.344978       0.116472
                                                         0.099466       0.003360
                          1       6    4dxz             10.077428      14.259500
                                                         5.847736      15.771636
                                                         2.494033       4.936060
                                                         0.988355       0.960109
                                                         0.344978       0.116472
                                                         0.099466       0.003360
                          1       6    4dy2             10.077428       8.232726
                                                         5.847736       9.105758
                                                         2.494033       2.849835
                                                         0.988355       0.554319
                                                         0.344978       0.067245
                                                         0.099466       0.001940
                          1       6    4dyz             10.077428      14.259500
                                                         5.847736      15.771636
                                                         2.494033       4.936060
                                                         0.988355       0.960109
                                                         0.344978       0.116472
                                                         0.099466       0.003360
                          1       6    4dz2             10.077428       8.232726
                                                         5.847736       9.105758
                                                         2.494033       2.849835
                                                         0.988355       0.554319
                                                         0.344978       0.067245
                                                         0.099466       0.001940

                          1       7    5dx2             10.077428      -2.715373
                                                         5.847736      -4.020640
                                                         2.494033      -1.397569
                                                         0.988355      -0.076143
                                                         0.344978       0.033435
                                                         0.099466       0.026032
                          1       7    5dxy             10.077428      -4.703164
                                                         5.847736      -6.963952
                                                         2.494033      -2.420661
                                                         0.988355      -0.131883
                                                         0.344978       0.057911
                                                         0.099466       0.045088
                          1       7    5dxz             10.077428      -4.703164
                                                         5.847736      -6.963952
                                                         2.494033      -2.420661
                                                         0.988355      -0.131883
                                                         0.344978       0.057911
                                                         0.099466       0.045088
                          1       7    5dy2             10.077428      -2.715373
                                                         5.847736      -4.020640
                                                         2.494033      -1.397569
                                                         0.988355      -0.076143
                                                         0.344978       0.033435
                                                         0.099466       0.026032
                          1       7    5dyz             10.077428      -4.703164
                                                         5.847736      -6.963952
                                                         2.494033      -2.420661
                                                         0.988355      -0.131883
                                                         0.344978       0.057911
                                                         0.099466       0.045088
                          1       7    5dz2             10.077428      -2.715373
                                                         5.847736      -4.020640
                                                         2.494033      -1.397569
                                                         0.988355      -0.076143
                                                         0.344978       0.033435
                                                         0.099466       0.026032

                          1       8    5fx3             10.077428      -0.467694
                                                         5.847736       0.618100
                                                         2.494033       0.066069
                                                         0.988355       0.262898
                                                         0.344978       0.004720
                                                         0.099466       0.007748
                          1       8    5fx2y            10.077428      -1.045795
                                                         5.847736       1.382114
                                                         2.494033       0.147734
                                                         0.988355       0.587859
                                                         0.344978       0.010555
                                                         0.099466       0.017325
                          1       8    5fx2z            10.077428      -1.045795
                                                         5.847736       1.382114
                                                         2.494033       0.147734
                                                         0.988355       0.587859
                                                         0.344978       0.010555
                                                         0.099466       0.017325
                          1       8    5fxy2            10.077428      -1.045795
                                                         5.847736       1.382114
                                                         2.494033       0.147734
                                                         0.988355       0.587859
                                                         0.344978       0.010555
                                                         0.099466       0.017325
                          1       8    5fxyz            10.077428      -1.811371
                                                         5.847736       2.393892
                                                         2.494033       0.255883
                                                         0.988355       1.018201
                                                         0.344978       0.018282
                                                         0.099466       0.030008
                          1       8    5fxz2            10.077428      -1.045795
                                                         5.847736       1.382114
                                                         2.494033       0.147734
                                                         0.988355       0.587859
                                                         0.344978       0.010555
                                                         0.099466       0.017325
                          1       8    5fy3             10.077428      -0.467694
                                                         5.847736       0.618100
                                                         2.494033       0.066069
                                                         0.988355       0.262898
                                                         0.344978       0.004720
                                                         0.099466       0.007748
                          1       8    5fy2z            10.077428      -1.045795
                                                         5.847736       1.382114
                                                         2.494033       0.147734
                                                         0.988355       0.587859
                                                         0.344978       0.010555
                                                         0.099466       0.017325
                          1       8    5fyz2            10.077428      -1.045795
                                                         5.847736       1.382114
                                                         2.494033       0.147734
                                                         0.988355       0.587859
                                                         0.344978       0.010555
                                                         0.099466       0.017325
                          1       8    5fz3             10.077428      -0.467694
                                                         5.847736       0.618100
                                                         2.494033       0.066069
                                                         0.988355       0.262898
                                                         0.344978       0.004720
                                                         0.099466       0.007748

       Atomic covalent radius [Angstrom]:                                  1.150

       Atomic van der Waals radius [Angstrom]:                             1.630

     GTH Potential information for                                   GTH-PBE-q18

       Description:                       Goedecker-Teter-Hutter pseudopotential
                                           Goedecker et al., PRB 54, 1703 (1996)
                                          Hartwigsen et al., PRB 58, 3641 (1998)
                                                      Krack, TCA 114, 145 (2005)

       Gaussian exponent of the core charge distribution:               4.081633
       Electronic configuration (s p d ...):                           4   6   8

       Parameters of the local part of the GTH pseudopotential:

                          rloc        C1          C2          C3          C4
                        0.350000    2.102166    0.648484

       Parameters of the non-local part of the GTH pseudopotential:

                   l      r(l)      h(i,j,l)

                   0    0.261295    0.622658    9.970227
                                    9.970227  -12.871507
                   1    0.224253  -11.142708   12.429566
                                   12.429566  -14.706861
                   2    0.215348  -12.628146

  2. Atomic kind: Ni_b                                  Number of atoms:      16

     Orbital Basis Set                                        DZVP-MOLOPT-SR-GTH

       Number of orbital shell sets:                                           1
       Number of orbital shells:                                               8
       Number of primitive Cartesian functions:                                6
       Number of Cartesian basis functions:                                   31
       Number of spherical basis functions:                                   26
       Norm type:                                                              2

       Normalised Cartesian orbitals:

                        Set   Shell   Orbital            Exponent    Coefficient

                          1       1    2s               10.077428      -0.684558
                                                         5.847736      -0.844524
                                                         2.494033       1.088856
                                                         0.988355       0.395503
                                                         0.344978       0.010224
                                                         0.099466      -0.003250

                          1       2    3s               10.077428       0.096747
                                                         5.847736       0.162504
                                                         2.494033      -0.297192
                                                         0.988355      -0.319752
                                                         0.344978       0.088318
                                                         0.099466       0.118587

                          1       3    4s               10.077428       0.036437
                                                         5.847736      -0.381480
                                                         2.494033       0.003759
                                                         0.988355      -1.048256
                                                         0.344978       0.855825
                                                         0.099466      -0.176350

                          1       4    3px              10.077428      -3.133913
                                                         5.847736       3.027656
                                                         2.494033       2.353227
                                                         0.988355       0.554184
                                                         0.344978       0.019462
                                                         0.099466      -0.000291
                          1       4    3py              10.077428      -3.133913
                                                         5.847736       3.027656
                                                         2.494033       2.353227
                                                         0.988355       0.554184
                                                         0.344978       0.019462
                                                         0.099466      -0.000291
                          1       4    3pz              10.077428      -3.133913
                                                         5.847736       3.027656
                                                         2.494033       2.353227
                                                         0.988355       0.554184
                                                         0.344978       0.019462
                                                         0.099466      -0.000291

                          1       5    4px              10.077428      -0.112729
                                                         5.847736      -0.114008
                                                         2.494033      -0.347303
                                                         0.988355      -0.110323
                                                         0.344978       0.154096
                                                         0.099466       0.058386
                          1       5    4py              10.077428      -0.112729
                                                         5.847736      -0.114008
                                                         2.494033      -0.347303
                                                         0.988355      -0.110323
                                                         0.344978       0.154096
                                                         0.099466       0.058386
                          1       5    4pz              10.077428      -0.112729
                                                         5.847736      -0.114008
                                                         2.494033      -0.347303
                                                         0.988355      -0.110323
                                                         0.344978       0.154096
                                                         0.099466       0.058386

                          1       6    4dx2             10.077428       8.232726
                                                         5.847736       9.105758
                                                         2.494033       2.849835
                                                         0.988355       0.554319
                                                         0.344978       0.067245
                                                         0.099466       0.001940
                          1       6    4dxy             10.077428      14.259500
                                                         5.847736      15.771636
                                                         2.494033       4.936060
                                                         0.988355       0.960109
                                                         0.344978       0.116472
                                                         0.099466       0.003360
                          1       6    4dxz             10.077428      14.259500
                                                         5.847736      15.771636
                                                         2.494033       4.936060
                                                         0.988355       0.960109
                                                         0.344978       0.116472
                                                         0.099466       0.003360
                          1       6    4dy2             10.077428       8.232726
                                                         5.847736       9.105758
                                                         2.494033       2.849835
                                                         0.988355       0.554319
                                                         0.344978       0.067245
                                                         0.099466       0.001940
                          1       6    4dyz             10.077428      14.259500
                                                         5.847736      15.771636
                                                         2.494033       4.936060
                                                         0.988355       0.960109
                                                         0.344978       0.116472
                                                         0.099466       0.003360
                          1       6    4dz2             10.077428       8.232726
                                                         5.847736       9.105758
                                                         2.494033       2.849835
                                                         0.988355       0.554319
                                                         0.344978       0.067245
                                                         0.099466       0.001940

                          1       7    5dx2             10.077428      -2.715373
                                                         5.847736      -4.020640
                                                         2.494033      -1.397569
                                                         0.988355      -0.076143
                                                         0.344978       0.033435
                                                         0.099466       0.026032
                          1       7    5dxy             10.077428      -4.703164
                                                         5.847736      -6.963952
                                                         2.494033      -2.420661
                                                         0.988355      -0.131883
                                                         0.344978       0.057911
                                                         0.099466       0.045088
                          1       7    5dxz             10.077428      -4.703164
                                                         5.847736      -6.963952
                                                         2.494033      -2.420661
                                                         0.988355      -0.131883
                                                         0.344978       0.057911
                                                         0.099466       0.045088
                          1       7    5dy2             10.077428      -2.715373
                                                         5.847736      -4.020640
                                                         2.494033      -1.397569
                                                         0.988355      -0.076143
                                                         0.344978       0.033435
                                                         0.099466       0.026032
                          1       7    5dyz             10.077428      -4.703164
                                                         5.847736      -6.963952
                                                         2.494033      -2.420661
                                                         0.988355      -0.131883
                                                         0.344978       0.057911
                                                         0.099466       0.045088
                          1       7    5dz2             10.077428      -2.715373
                                                         5.847736      -4.020640
                                                         2.494033      -1.397569
                                                         0.988355      -0.076143
                                                         0.344978       0.033435
                                                         0.099466       0.026032

                          1       8    5fx3             10.077428      -0.467694
                                                         5.847736       0.618100
                                                         2.494033       0.066069
                                                         0.988355       0.262898
                                                         0.344978       0.004720
                                                         0.099466       0.007748
                          1       8    5fx2y            10.077428      -1.045795
                                                         5.847736       1.382114
                                                         2.494033       0.147734
                                                         0.988355       0.587859
                                                         0.344978       0.010555
                                                         0.099466       0.017325
                          1       8    5fx2z            10.077428      -1.045795
                                                         5.847736       1.382114
                                                         2.494033       0.147734
                                                         0.988355       0.587859
                                                         0.344978       0.010555
                                                         0.099466       0.017325
                          1       8    5fxy2            10.077428      -1.045795
                                                         5.847736       1.382114
                                                         2.494033       0.147734
                                                         0.988355       0.587859
                                                         0.344978       0.010555
                                                         0.099466       0.017325
                          1       8    5fxyz            10.077428      -1.811371
                                                         5.847736       2.393892
                                                         2.494033       0.255883
                                                         0.988355       1.018201
                                                         0.344978       0.018282
                                                         0.099466       0.030008
                          1       8    5fxz2            10.077428      -1.045795
                                                         5.847736       1.382114
                                                         2.494033       0.147734
                                                         0.988355       0.587859
                                                         0.344978       0.010555
                                                         0.099466       0.017325
                          1       8    5fy3             10.077428      -0.467694
                                                         5.847736       0.618100
                                                         2.494033       0.066069
                                                         0.988355       0.262898
                                                         0.344978       0.004720
                                                         0.099466       0.007748
                          1       8    5fy2z            10.077428      -1.045795
                                                         5.847736       1.382114
                                                         2.494033       0.147734
                                                         0.988355       0.587859
                                                         0.344978       0.010555
                                                         0.099466       0.017325
                          1       8    5fyz2            10.077428      -1.045795
                                                         5.847736       1.382114
                                                         2.494033       0.147734
                                                         0.988355       0.587859
                                                         0.344978       0.010555
                                                         0.099466       0.017325
                          1       8    5fz3             10.077428      -0.467694
                                                         5.847736       0.618100
                                                         2.494033       0.066069
                                                         0.988355       0.262898
                                                         0.344978       0.004720
                                                         0.099466       0.007748

       Atomic covalent radius [Angstrom]:                                  1.150

       Atomic van der Waals radius [Angstrom]:                             1.630

     GTH Potential information for                                   GTH-PBE-q18

       Description:                       Goedecker-Teter-Hutter pseudopotential
                                           Goedecker et al., PRB 54, 1703 (1996)
                                          Hartwigsen et al., PRB 58, 3641 (1998)
                                                      Krack, TCA 114, 145 (2005)

       Gaussian exponent of the core charge distribution:               4.081633
       Electronic configuration (s p d ...):                           4   6   8

       Parameters of the local part of the GTH pseudopotential:

                          rloc        C1          C2          C3          C4
                        0.350000    2.102166    0.648484

       Parameters of the non-local part of the GTH pseudopotential:

                   l      r(l)      h(i,j,l)

                   0    0.261295    0.622658    9.970227
                                    9.970227  -12.871507
                   1    0.224253  -11.142708   12.429566
                                   12.429566  -14.706861
                   2    0.215348  -12.628146


 MOLECULE KIND INFORMATION


 All atoms are their own molecule, skipping detailed information


 TOTAL NUMBERS AND MAXIMUM NUMBERS

  Total number of            - Atomic kinds:                                   2
                             - Atoms:                                         32
                             - Shell sets:                                    32
                             - Shells:                                       256
                             - Primitive Cartesian functions:                192
                             - Cartesian basis functions:                    992
                             - Spherical basis functions:                    832

  Maximum angular momentum of- Orbital basis functions:                        3
                             - Local part of the GTH pseudopotential:          2
                             - Non-local part of the GTH pseudopotential:      3


 MODULE QUICKSTEP: ATOMIC COORDINATES IN ANGSTROM

   Atom Kind Element         X             Y             Z       Z(eff)     Mass
      1    1 Ni   28      0.876298      0.876298      7.370500  18.0000  58.6934
      2    1 Ni   28      0.876298      4.382298      7.370500  18.0000  58.6934
      3    1 Ni   28      2.629298      2.629298      7.370500  18.0000  58.6934
      4    1 Ni   28      2.629298      6.135298      7.370500  18.0000  58.6934
      5    1 Ni   28      4.382298      0.876298      7.370500  18.0000  58.6934
      6    1 Ni   28      4.382298      4.382298      7.370500  18.0000  58.6934
      7    1 Ni   28      6.135298      2.629298      7.370500  18.0000  58.6934
      8    1 Ni   28      6.135298      6.135298      7.370500  18.0000  58.6934
      9    2 Ni   28      0.876298      2.629298      9.123500  18.0000  58.6934
     10    2 Ni   28      0.876298      6.135298      9.123500  18.0000  58.6934
     11    2 Ni   28      2.629298      0.876298      9.123500  18.0000  58.6934
     12    2 Ni   28      2.629298      4.382298      9.123500  18.0000  58.6934
     13    2 Ni   28      4.382298      2.629298      9.123500  18.0000  58.6934
     14    2 Ni   28      4.382298      6.135298      9.123500  18.0000  58.6934
     15    2 Ni   28      6.135298      0.876298      9.123500  18.0000  58.6934
     16    2 Ni   28      6.135298      4.382298      9.123500  18.0000  58.6934
     17    2 Ni   28      0.876298      0.876298     10.876500  18.0000  58.6934
     18    2 Ni   28      0.876298      4.382298     10.876500  18.0000  58.6934
     19    2 Ni   28      2.629298      2.629298     10.876500  18.0000  58.6934
     20    2 Ni   28      2.629298      6.135298     10.876500  18.0000  58.6934
     21    2 Ni   28      4.382298      0.876298     10.876500  18.0000  58.6934
     22    2 Ni   28      4.382298      4.382298     10.876500  18.0000  58.6934
     23    2 Ni   28      6.135298      2.629298     10.876500  18.0000  58.6934
     24    2 Ni   28      6.135298      6.135298     10.876500  18.0000  58.6934
     25    1 Ni   28      0.876298      2.629298     12.629500  18.0000  58.6934
     26    1 Ni   28      0.876298      6.135298     12.629500  18.0000  58.6934
     27    1 Ni   28      2.629298      0.876298     12.629500  18.0000  58.6934
     28    1 Ni   28      2.629298      4.382298     12.629500  18.0000  58.6934
     29    1 Ni   28      4.382298      2.629298     12.629500  18.0000  58.6934
     30    1 Ni   28      4.382298      6.135298     12.629500  18.0000  58.6934
     31    1 Ni   28      6.135298      0.876298     12.629500  18.0000  58.6934
     32    1 Ni   28      6.135298      4.382298     12.629500  18.0000  58.6934



 SCF PARAMETERS         Density guess:                                    ATOMIC
                        --------------------------------------------------------
                        max_scf:                                             500
                        max_scf_history:                                       0
                        max_diis:                                              4
                        --------------------------------------------------------
                        eps_scf:                                        1.00E-04
                        eps_scf_history:                                0.00E+00
                        eps_diis:                                       1.00E-01
                        eps_eigval:                                     1.00E-05
                        --------------------------------------------------------
                        level_shift [a.u.]:                             0.000000
                        added MOs                                       535  552
                        --------------------------------------------------------
                        Mixing method:                            BROYDEN_MIXING
                                                charge density mixing in g-space
                        --------------------------------------------------------
                        Smear method:                                FERMI_DIRAC
                        Electronic temperature [K]:                       2000.0
                        Electronic temperature [a.u.]:                  6.33E-03
                        Accuracy threshold:                             1.00E-10
                        --------------------------------------------------------
                        No outer SCF

 PW_GRID| Information for grid number                                          1
 PW_GRID| Grid distributed over                                   128 processors
 PW_GRID| Real space group dimensions                                     8   16
 PW_GRID| the grid is blocked:                                               YES
 PW_GRID| Cutoff [a.u.]                                                    300.0
 PW_GRID| spherical cutoff:                                                   NO
 PW_GRID|   Bounds   1            -54      53                Points:         108
 PW_GRID|   Bounds   2            -54      53                Points:         108
 PW_GRID|   Bounds   3           -150     149                Points:         300
 PW_GRID| Volume element (a.u.^3)  0.1896E-02     Volume (a.u.^3)      6635.2971
 PW_GRID| Grid span                                                    FULLSPACE
 PW_GRID|   Distribution                         Average         Max         Min
 PW_GRID|   G-Vectors                            27337.5       28728       25272
 PW_GRID|   G-Rays                                 253.1         266         234
 PW_GRID|   Real Space Points                    27337.5       28728       25272

 PW_GRID| Information for grid number                                          2
 PW_GRID| Number of the reference grid                                         1
 PW_GRID| Grid distributed over                                   128 processors
 PW_GRID| Real space group dimensions                                     8   16
 PW_GRID| the grid is blocked:                                                NO
 PW_GRID| Cutoff [a.u.]                                                    100.0
 PW_GRID| spherical cutoff:                                                   NO
 PW_GRID|   Bounds   1            -30      29                Points:          60
 PW_GRID|   Bounds   2            -30      29                Points:          60
 PW_GRID|   Bounds   3            -90      89                Points:         180
 PW_GRID| Volume element (a.u.^3)  0.1024E-01     Volume (a.u.^3)      6635.2971
 PW_GRID| Grid span                                                    FULLSPACE
 PW_GRID|   Distribution                         Average         Max         Min
 PW_GRID|   G-Vectors                             5062.5       15960           0
 PW_GRID|   G-Rays                                  84.4         266           0
 PW_GRID|   Real Space Points                     5062.5        5760        3780

 PW_GRID| Information for grid number                                          3
 PW_GRID| Number of the reference grid                                         1
 PW_GRID| Grid distributed over                                   128 processors
 PW_GRID| Real space group dimensions                                     8   16
 PW_GRID| the grid is blocked:                                                NO
 PW_GRID| Cutoff [a.u.]                                                     33.3
 PW_GRID| spherical cutoff:                                                   NO
 PW_GRID|   Bounds   1            -18      17                Points:          36
 PW_GRID|   Bounds   2            -18      17                Points:          36
 PW_GRID|   Bounds   3            -50      49                Points:         100
 PW_GRID| Volume element (a.u.^3)  0.5120E-01     Volume (a.u.^3)      6635.2971
 PW_GRID| Grid span                                                    FULLSPACE
 PW_GRID|   Distribution                         Average         Max         Min
 PW_GRID|   G-Vectors                             1012.5        9576           0
 PW_GRID|   G-Rays                                  28.1         266           0
 PW_GRID|   Real Space Points                     1012.5        1500         800

 PW_GRID| Information for grid number                                          4
 PW_GRID| Number of the reference grid                                         1
 PW_GRID| Grid distributed over                                   128 processors
 PW_GRID| Real space group dimensions                                     8   16
 PW_GRID| the grid is blocked:                                                NO
 PW_GRID| Cutoff [a.u.]                                                     11.1
 PW_GRID| spherical cutoff:                                                   NO
 PW_GRID|   Bounds   1            -10       9                Points:          20
 PW_GRID|   Bounds   2            -10       9                Points:          20
 PW_GRID|   Bounds   3            -30      29                Points:          60
 PW_GRID| Volume element (a.u.^3)  0.2765         Volume (a.u.^3)      6635.2971
 PW_GRID| Grid span                                                    FULLSPACE
 PW_GRID|   Distribution                         Average         Max         Min
 PW_GRID|   G-Vectors                              187.5        3800           0
 PW_GRID|   G-Rays                                   9.4         190           0
 PW_GRID|   Real Space Points                      187.5         360         120

 PW_GRID| Information for grid number                                          5
 PW_GRID| Number of the reference grid                                         1
 PW_GRID| Grid distributed over                                   128 processors
 PW_GRID| Real space group dimensions                                     8   16
 PW_GRID| the grid is blocked:                                                NO
 PW_GRID| Cutoff [a.u.]                                                      3.7
 PW_GRID| spherical cutoff:                                                   NO
 PW_GRID|   Bounds   1             -6       5                Points:          12
 PW_GRID|   Bounds   2             -6       5                Points:          12
 PW_GRID|   Bounds   3            -18      17                Points:          36
 PW_GRID| Volume element (a.u.^3)   1.280         Volume (a.u.^3)      6635.2971
 PW_GRID| Grid span                                                    FULLSPACE
 PW_GRID|   Distribution                         Average         Max         Min
 PW_GRID|   G-Vectors                               40.5        1296           0
 PW_GRID|   G-Rays                                   3.4         108           0
 PW_GRID|   Real Space Points                       40.5          72           0

 POISSON| Solver                                                        PERIODIC
 POISSON| Periodicity                                                        XYZ

 RS_GRID| Information for grid number                                          1
 RS_GRID|   Bounds   1            -54      53                Points:         108
 RS_GRID|   Bounds   2            -54      53                Points:         108
 RS_GRID|   Bounds   3           -150     149                Points:         300
 RS_GRID| Real space distribution over                                  8 groups
 RS_GRID| Real space distribution along direction                              2
 RS_GRID| Border size                                                         28
 RS_GRID| Real space distribution over                                 16 groups
 RS_GRID| Real space distribution along direction                              3
 RS_GRID| Border size                                                         28
 RS_GRID|   Distribution                         Average         Max         Min
 RS_GRID|   Planes                                  69.5          70          69
 RS_GRID|   Distribution                         Average         Max         Min
 RS_GRID|   Planes                                  74.8          75          74

 RS_GRID| Information for grid number                                          2
 RS_GRID|   Bounds   1            -30      29                Points:          60
 RS_GRID|   Bounds   2            -30      29                Points:          60
 RS_GRID|   Bounds   3            -90      89                Points:         180
 RS_GRID| Real space fully replicated
 RS_GRID| Group size                                                           1

 RS_GRID| Information for grid number                                          3
 RS_GRID|   Bounds   1            -18      17                Points:          36
 RS_GRID|   Bounds   2            -18      17                Points:          36
 RS_GRID|   Bounds   3            -50      49                Points:         100
 RS_GRID| Real space fully replicated
 RS_GRID| Group size                                                           1

 RS_GRID| Information for grid number                                          4
 RS_GRID|   Bounds   1            -10       9                Points:          20
 RS_GRID|   Bounds   2            -10       9                Points:          20
 RS_GRID|   Bounds   3            -30      29                Points:          60
 RS_GRID| Real space fully replicated
 RS_GRID| Group size                                                           1

 RS_GRID| Information for grid number                                          5
 RS_GRID|   Bounds   1             -6       5                Points:          12
 RS_GRID|   Bounds   2             -6       5                Points:          12
 RS_GRID|   Bounds   3            -18      17                Points:          36
 RS_GRID| Real space fully replicated
 RS_GRID| Group size                                                           1

 Spin 1

 Number of electrons:                                                        296.960
 Number of occupied orbitals:                                                297
 Number of molecular orbitals:                                               832

 Spin 2

 Number of electrons:                                                        279.040
 Number of occupied orbitals:                                                280
 Number of molecular orbitals:                                               832

 Number of orbital functions:                                                832
 Number of independent orbital functions:                                    832

 Extrapolation method: initial_guess

 Atomic guess: The first density matrix is obtained in terms of atomic orbitals
               and electronic configurations assigned to each atomic kind

 Guess for atomic kind: Ni_i

 Electronic structure
    Total number of core electrons                                         10.00
    Total number of valence electrons                                      18.00
    Total number of electrons                                              28.00
    Multiplicity                                                         doublet
    Alpha Electrons
    S   [  1.00  1.00] 1.00  1.00
    P   [  3.00] 3.00
    D      4.40
    Beta Electrons
    S   [  1.00  1.00] 1.00  1.00
    P   [  3.00] 3.00
    D      3.60


 *******************************************************************************
                  Iteration          Convergence                     Energy [au]
 *******************************************************************************
                          1         1.51750                    -167.068932204718
                          2         15.5935                    -156.656530566819
                          3         2.37322                    -168.320625176021
                          4        0.215236                    -168.611142488999
                          5        0.864690E-01                -168.614185977773
                          6        0.204270E-01                -168.614864366588
                          7        0.117629E-02                -168.614962284536
                          8        0.143499E-02                -168.614962241165
                          9        0.165550E-03                -168.614962454733
                         10        0.801651E-03                -168.614962414936
                         11        0.526340E-03                -168.614962440154
                         12        0.114214E-03                -168.614962458210
                         13        0.974554E-04                -168.614962459061
                         14        0.103837E-03                -168.614962459937
                         15        0.922182E-04                -168.614962460311
                         16        0.489415E-04                -168.614962460739
                         17        0.376531E-04                -168.614962461148
                         18        0.319337E-04                -168.614962461185
                         19        0.537275E-04                -168.614962461068
                         20        0.409549E-04                -168.614962461145
                         21        0.226152E-04                -168.614962461237
                         22        0.174462E-04                -168.614962461257
                         23        0.165586E-04                -168.614962461260
                         24        0.160650E-04                -168.614962461262
                         25        0.113583E-04                -168.614962461280
                         26        0.503754E-05                -168.614962461287
                         27        0.239088E-05                -168.614962461289
                         28        0.206656E-05                -168.614962461289
                         29        0.678810E-06                -168.614962461289

 Energy components [Hartree]           Total Energy ::         -168.614962461289
                                        Band Energy ::          -26.570438398031
                                     Kinetic Energy ::           97.308645535822
                                   Potential Energy ::         -265.923607997111
                                      Virial (-V/T) ::            2.732785011371
                                        Core Energy ::         -299.569105195415
                                          XC Energy ::          -16.228812263913
                                     Coulomb Energy ::          147.182954998038
                       Total Pseudopotential Energy ::         -396.964091881334
                       Local Pseudopotential Energy ::         -362.650332264705
                    Nonlocal Pseudopotential Energy ::          -34.313759616629
                                        Confinement ::            0.863411500974

 Orbital energies  State     Spin  L     Occupation   Energy[a.u.]    Energy[eV]

                       1    alpha  0          1.000      -4.174802   -113.602130
                       2    alpha  0          1.000      -0.181779     -4.946449
                       1     beta  0          1.000      -4.138200   -112.606137
                       2     beta  0          1.000      -0.175997     -4.789129

                       1    alpha  1          3.000      -2.580817    -70.227599
                       1     beta  1          3.000      -2.545205    -69.258560

                       1    alpha  2          4.400      -0.328813     -8.947444
                       1     beta  2          3.600      -0.298561     -8.124256


 Total Electron Density at R=0:                                         0.030417

 Guess for atomic kind: Ni_b

 Electronic structure
    Total number of core electrons                                         10.00
    Total number of valence electrons                                      18.00
    Total number of electrons                                              28.00
    Multiplicity                                                         singlet
    Alpha Electrons
    S   [  1.00  1.00] 1.00  1.00
    P   [  3.00] 3.00
    D      4.16
    Beta Electrons
    S   [  1.00  1.00] 1.00  1.00
    P   [  3.00] 3.00
    D      3.84


 *******************************************************************************
                  Iteration          Convergence                     Energy [au]
 *******************************************************************************
                          1         1.51648                    -167.063529611435
                          2         14.6120                    -156.606751284162
                          3         2.18416                    -168.316046967915
                          4        0.172921                    -168.606709674961
                          5        0.608973E-01                -168.609482485959
                          6        0.871220E-02                -168.609864761233
                          7        0.836168E-02                -168.609874040734
                          8        0.523908E-02                -168.609877174973
                          9        0.113415E-02                -168.609879838368
                         10        0.232313E-02                -168.609879551506
                         11        0.886243E-03                -168.609879915404
                         12        0.134683E-03                -168.609879998784
                         13        0.656756E-04                -168.609879999387
                         14        0.681289E-04                -168.609879999767
                         15        0.116095E-03                -168.609879997840
                         16        0.896206E-04                -168.609879999592
                         17        0.205472E-04                -168.609880000120
                         18        0.202491E-04                -168.609880000164
                         19        0.152976E-04                -168.609880000185
                         20        0.154993E-04                -168.609880000196
                         21        0.174364E-04                -168.609880000189
                         22        0.881849E-05                -168.609880000214
                         23        0.903905E-06                -168.609880000219

 Energy components [Hartree]           Total Energy ::         -168.609880000219
                                        Band Energy ::          -26.568010792265
                                     Kinetic Energy ::           97.301776653081
                                   Potential Energy ::         -265.911656653300
                                      Virial (-V/T) ::            2.732855100903
                                        Core Energy ::         -299.565090465615
                                          XC Energy ::          -16.222996300908
                                     Coulomb Energy ::          147.178206766303
                       Total Pseudopotential Energy ::         -396.953207518678
                       Local Pseudopotential Energy ::         -362.643048578585
                    Nonlocal Pseudopotential Energy ::          -34.310158940093
                                        Confinement ::            0.863403999825

 Orbital energies  State     Spin  L     Occupation   Energy[a.u.]    Energy[eV]

                       1    alpha  0          1.000      -4.164368   -113.318212
                       2    alpha  0          1.000      -0.180093     -4.900571
                       1     beta  0          1.000      -4.149727   -112.919805
                       2     beta  0          1.000      -0.177781     -4.837669

                       1    alpha  1          3.000      -2.570665    -69.951341
                       1     beta  1          3.000      -2.556420    -69.563720

                       1    alpha  2          4.160      -0.320158     -8.711932
                       1     beta  2          3.840      -0.308056     -8.382621


 Total Electron Density at R=0:                                         0.030434

 Spin 1
 Re-scaling the density matrix to get the right number of electrons for spin 1
                  # Electrons              Trace(P)               Scaling factor
                        296.960             296.960                        1.000

 Spin 2
 Re-scaling the density matrix to get the right number of electrons for spin 2
                  # Electrons              Trace(P)               Scaling factor
                        279.040             279.040                        1.000


 SCF WAVEFUNCTION OPTIMIZATION

  Step     Update method      Time    Convergence         Total energy    Change
  ------------------------------------------------------------------------------
     1 NoMix/Diag. 0.80E-01    1.6     0.87260355     -5426.4445480828 -5.43E+03
     2 Broy./Diag. 0.80E-01    1.5     0.02026365     -5316.0428935115  1.10E+02
     3 Broy./Diag. 0.80E-01    1.6     0.04266116     -5349.6457755971 -3.36E+01
     4 Broy./Diag. 0.80E-01    1.5     0.01203401     -5405.3514411333 -5.57E+01
     5 Broy./Diag. 0.80E-01    1.5     0.00935688     -5416.4753237468 -1.11E+01
     6 Broy./Diag. 0.80E-01    1.5     0.01547951     -5415.2292884705  1.25E+00
     7 Broy./Diag. 0.80E-01    1.5     0.00257181     -5416.9832897329 -1.75E+00
     8 Broy./Diag. 0.80E-01    1.5     0.00967393     -5417.0567583279 -7.35E-02
     9 Broy./Diag. 0.80E-01    1.5     0.00298726     -5416.8317940524  2.25E-01
    10 Broy./Diag. 0.80E-01    1.5     0.00165321     -5417.4594804499 -6.28E-01
    11 Broy./Diag. 0.80E-01    1.5     0.00223964     -5417.1201194987  3.39E-01
    12 Broy./Diag. 0.80E-01    1.5     0.00085554     -5417.5899633342 -4.70E-01
    13 Broy./Diag. 0.80E-01    1.5     0.00264059     -5417.5187342701  7.12E-02
    14 Broy./Diag. 0.80E-01    1.5     0.02686059     -5417.6669799471 -1.48E-01
    15 Broy./Diag. 0.80E-01    1.5     0.01474435     -5417.7229187346 -5.59E-02
[...]
   132 Broy./Diag. 0.80E-01    1.5     0.07318632     -5417.7063322089  4.99E-01
   133 Broy./Diag. 0.80E-01    1.5     0.10520951     -5418.2916591689 -5.85E-01
   134 Broy./Diag. 0.80E-01    1.5     0.07073715     -5417.8023264642  4.89E-01
   135 Broy./Diag. 0.80E-01    1.5     0.05827557     -5417.5018641936  3.00E-01
   136 Broy./Diag. 0.80E-01    1.5     0.03013441     -5416.2269792987  1.27E+00
   137 Broy./Diag. 0.80E-01    1.5     0.12204643     -5416.7861749602 -5.59E-01
   138 Broy./Diag. 0.80E-01    1.5     0.13306683     -5417.3687327128 -5.83E-01
   139 Broy./Diag. 0.80E-01    1.5     0.12169302     -5412.0406484748  5.33E+00
   140 Broy./Diag. 0.80E-01    1.5     0.11917102     -5418.3156745920 -6.28E+00
   141 Broy./Diag. 0.80E-01    1.5     0.10983473     -5416.9347308282  1.38E+00
   142 Broy./Diag. 0.80E-01    1.5     0.05273235     -5418.9740387866 -2.04E+00
   143 Broy./Diag. 0.80E-01    1.5     0.04940210     -5419.6124885596 -6.38E-01
   144 Broy./Diag. 0.80E-01    1.5     0.16849227     -5419.1480840477  4.64E-01
   145 Broy./Diag. 0.80E-01    1.5     0.17827592     -5401.8527281039  1.73E+01
   146 Broy./Diag. 0.80E-01    1.5     0.13460122     -5419.0910257862 -1.72E+01
   147 Broy./Diag. 0.80E-01    1.5     0.12887469     -5418.1563569726  9.35E-01
   148 Broy./Diag. 0.80E-01    1.5     0.00929470     -5416.6278445694  1.53E+00
   149 Broy./Diag. 0.80E-01    1.5     0.04999878     -5415.7250055546  9.03E-01
   150 Broy./Diag. 0.80E-01    1.5     0.10119002     -5411.4174596194  4.31E+00
   151 Broy./Diag. 0.80E-01    1.5     0.01650980     -5418.0314183092 -6.61E+00
   152 Broy./Diag. 0.80E-01    1.5     0.02938685     -5415.4637387086  2.57E+00
   153 Broy./Diag. 0.80E-01    1.5     0.02271643     -5417.7470539533 -2.28E+00
   154 Broy./Diag. 0.80E-01    1.5     0.02873181     -5416.4304107762  1.32E+00
   155 Broy./Diag. 0.80E-01    1.5     0.12103351     -5416.1268204291  3.04E-01
   156 Broy./Diag. 0.80E-01    1.5     0.12216300     -5419.8899918553 -3.76E+00
   157 Broy./Diag. 0.80E-01    1.5     0.03653255     -5420.2195883983 -3.30E-01
   158 Broy./Diag. 0.80E-01    1.5     0.09994699     -5420.9332266120 -7.14E-01
   159 Broy./Diag. 0.80E-01    1.5     0.15766216     -5414.7812102825  6.15E+00
   160 Broy./Diag. 0.80E-01    1.5     0.16823699     -5405.8668367946  8.91E+00
   161 Broy./Diag. 0.80E-01    1.5     0.01246155     -5418.5618185995 -1.27E+01
   162 Broy./Diag. 0.80E-01    1.5     0.07072484     -5419.1857743252 -6.24E-01
   163 Broy./Diag. 0.80E-01    1.5     0.11355720     -5422.1207995219 -2.94E+00
   164 Broy./Diag. 0.80E-01    1.5     0.15058748     -5421.9984726876  1.22E-01
   165 Broy./Diag. 0.80E-01    1.5     0.27179532     -5423.2360547380 -1.24E+00
   166 Broy./Diag. 0.80E-01    1.5     0.06442561     -5420.4654766610  2.77E+00
   167 Broy./Diag. 0.80E-01    1.5     0.05156220     -5422.8584964942 -2.39E+00
   168 Broy./Diag. 0.80E-01    1.5     0.03999371     -5420.2184564224  2.64E+00
   169 Broy./Diag. 0.80E-01    1.5     0.12169651     -5423.5169935373 -3.30E+00
   170 Broy./Diag. 0.80E-01    1.5     0.09911606     -5422.0758858323  1.44E+00
   171 Broy./Diag. 0.80E-01    1.5     0.11068348     -5421.7177047670  3.58E-01
   172 Broy./Diag. 0.80E-01    1.5     0.07254472     -5421.0842517692  6.33E-01
   173 Broy./Diag. 0.80E-01    1.5     0.12340409     -5415.6298643906  5.45E+00
   174 Broy./Diag. 0.80E-01    1.5     0.09531783     -5417.9132630795 -2.28E+00
   175 Broy./Diag. 0.80E-01    1.5     0.02191648     -5410.5414376944  7.37E+00
   176 Broy./Diag. 0.80E-01    1.5     0.08360895     -5413.3086094719 -2.77E+00
   177 Broy./Diag. 0.80E-01    1.5     0.03959953     -5411.0064047706  2.30E+00
   178 Broy./Diag. 0.80E-01    1.5     0.03576678     -5416.7795324736 -5.77E+00
   179 Broy./Diag. 0.80E-01    1.5     0.09990449     -5412.2520925707  4.53E+00
   180 Broy./Diag. 0.80E-01    1.5     0.17797666     -5420.7487618880 -8.50E+00
   181 Broy./Diag. 0.80E-01    1.5     0.18333688     -5409.9094026544  1.08E+01
   182 Broy./Diag. 0.80E-01    1.5     0.08971844     -5418.2418130009 -8.33E+00
   183 Broy./Diag. 0.80E-01    1.5     0.06632650     -5421.1402189108 -2.90E+00
   184 Broy./Diag. 0.80E-01    1.5     0.03573052     -5422.3947685784 -1.25E+00
   185 Broy./Diag. 0.80E-01    1.5     0.19623847     -5422.2099148064  1.85E-01
   186 Broy./Diag. 0.80E-01    1.5     0.19127701     -5412.7674707753  9.44E+00
   187 Broy./Diag. 0.80E-01    1.5     0.03737028     -5417.3334363270 -4.57E+00
   188 Broy./Diag. 0.80E-01    1.5     0.05493492     -5413.5510686171  3.78E+00
   189 Broy./Diag. 0.80E-01    1.5     0.08700046     -5411.2325553202  2.32E+00
   190 Broy./Diag. 0.80E-01    1.5     0.13284750     -5412.5890221090 -1.36E+00
   191 Broy./Diag. 0.80E-01    1.5     0.01391282     -5420.1871099073 -7.60E+00
   192 Broy./Diag. 0.80E-01    1.5     0.07108075     -5421.3012130081 -1.11E+00
   193 Broy./Diag. 0.80E-01    1.5     0.01860262     -5421.9534650138 -6.52E-01
   194 Broy./Diag. 0.80E-01    1.5     0.03240619     -5418.9640313522  2.99E+00
   195 Broy./Diag. 0.80E-01    1.5     0.04917957     -5417.8224214679  1.14E+00
   196 Broy./Diag. 0.80E-01    1.5     0.04575547     -5414.9759336672  2.85E+00
   197 Broy./Diag. 0.80E-01    1.5     0.07631144     -5419.3821651791 -4.41E+00
   198 Broy./Diag. 0.80E-01    1.5     0.07836493     -5415.1532608585  4.23E+00
   199 Broy./Diag. 0.80E-01    1.5     0.07459860     -5412.5515344069  2.60E+00
   200 Broy./Diag. 0.80E-01    1.5     0.04071988     -5419.9582437899 -7.41E+00
   201 Broy./Diag. 0.80E-01    1.5     0.05179894     -5416.9372450446  3.02E+00
   202 Broy./Diag. 0.80E-01    1.5     0.13681881     -5419.5885426567 -2.65E+00
   203 Broy./Diag. 0.80E-01    1.5     0.12962843     -5424.7226640762 -5.13E+00
   204 Broy./Diag. 0.80E-01    1.5     0.19725327     -5423.7423705725  9.80E-01
   205 Broy./Diag. 0.80E-01    1.5     0.08019054     -5415.2968905985  8.45E+00
   206 Broy./Diag. 0.80E-01    1.5     0.17115441     -5422.3370008296 -7.04E+00
   207 Broy./Diag. 0.80E-01    1.5     0.06375666     -5413.2054171498  9.13E+00
   208 Broy./Diag. 0.80E-01    1.5     0.04568097     -5409.7149074275  3.49E+00
   209 Broy./Diag. 0.80E-01    1.5     0.20577548     -5405.1041569936  4.61E+00
   210 Broy./Diag. 0.80E-01    1.5     0.10949937     -5425.3899287854 -2.03E+01
   211 Broy./Diag. 0.80E-01    1.5     0.13690282     -5424.5481743765  8.42E-01
   212 Broy./Diag. 0.80E-01    1.5     0.13911106     -5413.6870719608  1.09E+01
   213 Broy./Diag. 0.80E-01    1.5     0.12599161     -5393.0723388171  2.06E+01
   214 Broy./Diag. 0.80E-01    1.5     0.21185579     -5403.0927383080 -1.00E+01
   215 Broy./Diag. 0.80E-01    1.5     0.07392880     -5418.2523150652 -1.52E+01
   216 Broy./Diag. 0.80E-01    1.5     0.12047226     -5426.2113258825 -7.96E+00
   217 Broy./Diag. 0.80E-01    1.5     0.01478793     -5426.3537814911 -1.42E-01
   218 Broy./Diag. 0.80E-01    1.5     0.07834247     -5427.1116809298 -7.58E-01
   219 Broy./Diag. 0.80E-01    1.5     0.14010746     -5426.1522559858  9.59E-01
   220 Broy./Diag. 0.80E-01    1.5     0.04206490     -5426.2038746340 -5.16E-02
   221 Broy./Diag. 0.80E-01    1.5     0.42149957     -5426.8656204439 -6.62E-01
   222 Broy./Diag. 0.80E-01    1.5     0.34918239     -5399.6353799124  2.72E+01
   223 Broy./Diag. 0.80E-01    1.5     0.01819051     -5419.4730544358 -1.98E+01
   224 Broy./Diag. 0.80E-01    1.5     0.12400588     -5419.6334120337 -1.60E-01
   225 Broy./Diag. 0.80E-01    1.5     0.03187237     -5418.5311284749  1.10E+00
   226 Broy./Diag. 0.80E-01    1.5     0.05476165     -5417.5343304376  9.97E-01
   227 Broy./Diag. 0.80E-01    1.5     0.20920189     -5418.3894542913 -8.55E-01
   228 Broy./Diag. 0.80E-01    1.5     0.20938000     -5396.1289872926  2.23E+01
   229 Broy./Diag. 0.80E-01    1.5     0.01501364     -5420.9113941271 -2.48E+01
   230 Broy./Diag. 0.80E-01    1.5     0.03977082     -5423.2630194849 -2.35E+00
   231 Broy./Diag. 0.80E-01    1.5     0.06274850     -5416.8338984176  6.43E+00
   232 Broy./Diag. 0.80E-01    1.5     0.05023682     -5424.7851833781 -7.95E+00
   233 Broy./Diag. 0.80E-01    1.5     0.12512742     -5425.6852845546 -9.00E-01
   234 Broy./Diag. 0.80E-01    1.5     0.20643480     -5417.6000970970  8.09E+00
   235 Broy./Diag. 0.80E-01    1.5     0.25043476     -5415.1060028772  2.49E+00
   236 Broy./Diag. 0.80E-01    1.5     0.05404485     -5424.2481746356 -9.14E+00
   237 Broy./Diag. 0.80E-01    1.5     0.02483283     -5425.8745156848 -1.63E+00
   238 Broy./Diag. 0.80E-01    1.5     0.03248113     -5426.0106825168 -1.36E-01
   239 Broy./Diag. 0.80E-01    1.5     0.03981697     -5425.2115027753  7.99E-01
   240 Broy./Diag. 0.80E-01    1.5     0.03010987     -5423.2699143150  1.94E+00
   241 Broy./Diag. 0.80E-01    1.5     0.05408331     -5421.3730147632  1.90E+00
   242 Broy./Diag. 0.80E-01    1.5     0.07763114     -5419.1535351580  2.22E+00
   243 Broy./Diag. 0.80E-01    1.5     0.03182175     -5423.9873774638 -4.83E+00
   244 Broy./Diag. 0.80E-01    1.5     0.21664209     -5424.8074480530 -8.20E-01
   245 Broy./Diag. 0.80E-01    1.5     0.12096514     -5423.1205819882  1.69E+00
   246 Broy./Diag. 0.80E-01    1.5     0.17734911     -5425.5812915608 -2.46E+00
   247 Broy./Diag. 0.80E-01    1.5     0.08296983     -5404.9634724290  2.06E+01
   248 Broy./Diag. 0.80E-01    1.5     0.01395683     -5410.7707502733 -5.81E+00
   249 Broy./Diag. 0.80E-01    1.5     0.03868034     -5410.0532675258  7.17E-01
   250 Broy./Diag. 0.80E-01    1.5     0.21461653     -5404.2928243475  5.76E+00
   251 Broy./Diag. 0.80E-01    1.5     0.11656261     -5427.4978292540 -2.32E+01
   252 Broy./Diag. 0.80E-01    1.5     0.02526198     -5424.6066560578  2.89E+00
   253 Broy./Diag. 0.80E-01    1.5     0.01773875     -5425.9936686891 -1.39E+00
   254 Broy./Diag. 0.80E-01    1.5     0.08435232     -5425.1024108478  8.91E-01
   255 Broy./Diag. 0.80E-01    1.5     0.12060544     -5425.9707094271 -8.68E-01
   256 Broy./Diag. 0.80E-01    1.5     0.07085671     -5425.3773513553  5.93E-01
   257 Broy./Diag. 0.80E-01    1.5     0.08524831     -5422.9987174364  2.38E+00
   258 Broy./Diag. 0.80E-01    1.5     0.06134795     -5425.9149610453 -2.92E+00
   259 Broy./Diag. 0.80E-01    1.5     0.04173217     -5423.8690896406  2.05E+00
   260 Broy./Diag. 0.80E-01    1.5     0.13340438     -5425.3594107413 -1.49E+00
   261 Broy./Diag. 0.80E-01    1.5     0.05413367     -5422.6873952991  2.67E+00
   262 Broy./Diag. 0.80E-01    1.5     0.02584415     -5421.8284649710  8.59E-01
   263 Broy./Diag. 0.80E-01    1.5     0.10039819     -5419.6088083670  2.22E+00
   264 Broy./Diag. 0.80E-01    1.5     0.18868206     -5418.7807239215  8.28E-01
   265 Broy./Diag. 0.80E-01    1.5     0.18767737     -5402.0769780738  1.67E+01
   266 Broy./Diag. 0.80E-01    1.5     0.01726462     -5416.3603446230 -1.43E+01
   267 Broy./Diag. 0.80E-01    1.5     0.05743862     -5417.1641538441 -8.04E-01
   268 Broy./Diag. 0.80E-01    1.5     0.10735838     -5419.3671423624 -2.20E+00
   269 Broy./Diag. 0.80E-01    1.5     0.06182907     -5421.4502083528 -2.08E+00
   270 Broy./Diag. 0.80E-01    1.5     0.01422425     -5421.6384542192 -1.88E-01
   271 Broy./Diag. 0.80E-01    1.5     0.05670101     -5421.9691077144 -3.31E-01
   272 Broy./Diag. 0.80E-01    1.5     0.02485978     -5425.9615496524 -3.99E+00
   273 Broy./Diag. 0.80E-01    1.5     0.14727228     -5426.0941115393 -1.33E-01
   274 Broy./Diag. 0.80E-01    1.5     0.30822774     -5415.7736134664  1.03E+01
   275 Broy./Diag. 0.80E-01    1.5     0.09508293     -5427.5584997711 -1.18E+01
   276 Broy./Diag. 0.80E-01    1.5     0.03049222     -5425.3187016078  2.24E+00
   277 Broy./Diag. 0.80E-01    1.5     0.04804898     -5424.8302786661  4.88E-01
   278 Broy./Diag. 0.80E-01    1.5     0.03170408     -5424.6986715165  1.32E-01
   279 Broy./Diag. 0.80E-01    1.5     0.03414681     -5424.0346445782  6.64E-01
   280 Broy./Diag. 0.80E-01    1.5     0.05781523     -5420.4923509650  3.54E+00
   281 Broy./Diag. 0.80E-01    1.5     0.20204390     -5422.2384666530 -1.75E+00
   282 Broy./Diag. 0.80E-01    1.5     0.15013664     -5397.8833733992  2.44E+01
   283 Broy./Diag. 0.80E-01    1.5     0.06045311     -5390.4652931998  7.42E+00
   284 Broy./Diag. 0.80E-01    1.5     0.09829306     -5390.4270584249  3.82E-02
   285 Broy./Diag. 0.80E-01    1.5     0.08751688     -5401.9035248915 -1.15E+01
   286 Broy./Diag. 0.80E-01    1.5     0.04083684     -5410.2880069181 -8.38E+00
   287 Broy./Diag. 0.80E-01    1.5     0.07291614     -5407.0085948039  3.28E+00
   288 Broy./Diag. 0.80E-01    1.5     0.16076300     -5413.1252987018 -6.12E+00
   289 Broy./Diag. 0.80E-01    1.5     0.18205742     -5420.9587160569 -7.83E+00
   290 Broy./Diag. 0.80E-01    1.5     0.12423068     -5420.9803593019 -2.16E-02
   291 Broy./Diag. 0.80E-01    1.5     0.29011757     -5421.7797228662 -7.99E-01
   292 Broy./Diag. 0.80E-01    1.5     0.13271526     -5419.3028979796  2.48E+00
   293 Broy./Diag. 0.80E-01    1.5     0.41079026     -5423.6033699169 -4.30E+00
   294 Broy./Diag. 0.80E-01    1.5     0.54678667     -5405.1755204742  1.84E+01
   295 Broy./Diag. 0.80E-01    1.5     0.06567227     -5422.2977389562 -1.71E+01
   296 Broy./Diag. 0.80E-01    1.5     0.07190210     -5423.2145709082 -9.17E-01
   297 Broy./Diag. 0.80E-01    1.5     0.05290278     -5421.9718836291  1.24E+00
   298 Broy./Diag. 0.80E-01    1.5     0.08777340     -5420.9474884780  1.02E+00
   299 Broy./Diag. 0.80E-01    1.5     0.06010349     -5420.9325427127  1.49E-02
   300 Broy./Diag. 0.80E-01    1.5     0.07025140     -5419.8884482024  1.04E+00
   301 Broy./Diag. 0.80E-01    1.5     0.26519220     -5422.4165013416 -2.53E+00
   302 Broy./Diag. 0.80E-01    1.5     0.21151436     -5397.4823258323  2.49E+01
   303 Broy./Diag. 0.80E-01    1.5     0.04509150     -5420.0587124861 -2.26E+01
   304 Broy./Diag. 0.80E-01    1.5     0.07857253     -5421.4737130290 -1.42E+00
   305 Broy./Diag. 0.80E-01    1.5     0.17891387     -5417.9375804681  3.54E+00
   306 Broy./Diag. 0.80E-01    1.5     0.12698111     -5411.7742022420  6.16E+00
   307 Broy./Diag. 0.80E-01    1.5     0.17747597     -5428.4261192136 -1.67E+01
   308 Broy./Diag. 0.80E-01    1.5     0.06769408     -5418.2686074251  1.02E+01
   309 Broy./Diag. 0.80E-01    1.5     0.15985399     -5423.0483267389 -4.78E+00
   310 Broy./Diag. 0.80E-01    1.5     0.19741746     -5426.5603683103 -3.51E+00
   311 Broy./Diag. 0.80E-01    1.5     0.25498436     -5416.1746775446  1.04E+01
   312 Broy./Diag. 0.80E-01    1.5     0.16920902     -5399.6218383452  1.66E+01
   313 Broy./Diag. 0.80E-01    1.5     0.06806839     -5403.0095475806 -3.39E+00
   314 Broy./Diag. 0.80E-01    1.5     0.09339203     -5407.4996515848 -4.49E+00
   315 Broy./Diag. 0.80E-01    1.5     0.04393877     -5404.8865000067  2.61E+00
   316 Broy./Diag. 0.80E-01    1.5     0.02312073     -5404.2726133211  6.14E-01
   317 Broy./Diag. 0.80E-01    1.5     0.25081687     -5401.4277874093  2.84E+00
   318 Broy./Diag. 0.80E-01    1.5     0.41880565     -5423.8882996613 -2.25E+01
   319 Broy./Diag. 0.80E-01    1.5     0.52716052     -5413.5588368561  1.03E+01
   320 Broy./Diag. 0.80E-01    1.5     0.18988139     -5426.8188135078 -1.33E+01
   321 Broy./Diag. 0.80E-01    1.5     0.16136067     -5408.1735711458  1.86E+01
   322 Broy./Diag. 0.80E-01    1.5     0.16981852     -5417.0629416732 -8.89E+00
   323 Broy./Diag. 0.80E-01    1.5     0.18254218     -5421.3698587054 -4.31E+00
   324 Broy./Diag. 0.80E-01    1.5     0.19625765     -5416.1061080186  5.26E+00
   325 Broy./Diag. 0.80E-01    1.5     0.01920367     -5422.2319228912 -6.13E+00
   326 Broy./Diag. 0.80E-01    1.5     0.03058780     -5420.3649769828  1.87E+00
   327 Broy./Diag. 0.80E-01    1.5     0.04940229     -5422.5962929423 -2.23E+00
   328 Broy./Diag. 0.80E-01    1.5     0.35281402     -5424.2755578433 -1.68E+00
   329 Broy./Diag. 0.80E-01    1.5     0.44323476     -5414.3560284070  9.92E+00
   330 Broy./Diag. 0.80E-01    1.5     0.03969178     -5425.7665161431 -1.14E+01
   331 Broy./Diag. 0.80E-01    1.5     0.03926834     -5422.0603222932  3.71E+00
   332 Broy./Diag. 0.80E-01    1.5     0.01647813     -5425.7754384945 -3.72E+00
   333 Broy./Diag. 0.80E-01    1.5     0.03670855     -5424.9376451980  8.38E-01
   334 Broy./Diag. 0.80E-01    1.5     0.07011896     -5423.3760287520  1.56E+00
   335 Broy./Diag. 0.80E-01    1.5     0.04999882     -5422.0423205662  1.33E+00
   336 Broy./Diag. 0.80E-01    1.5     0.05545557     -5421.4843826867  5.58E-01
   337 Broy./Diag. 0.80E-01    1.5     0.01920414     -5422.7369627965 -1.25E+00
   338 Broy./Diag. 0.80E-01    1.5     0.52028617     -5423.0402046967 -3.03E-01
   339 Broy./Diag. 0.80E-01    1.5     0.71000751     -5419.3597128707  3.68E+00
   340 Broy./Diag. 0.80E-01    1.5     0.32379126     -5404.5767612160  1.48E+01
   341 Broy./Diag. 0.80E-01    1.5     0.43885239     -5397.9195478026  6.66E+00
   342 Broy./Diag. 0.80E-01    1.5     0.22212775     -5399.9833631322 -2.06E+00
   343 Broy./Diag. 0.80E-01    1.5     0.17773429     -5414.7093270431 -1.47E+01
   344 Broy./Diag. 0.80E-01    1.5     0.02546917     -5410.5000870127  4.21E+00
   345 Broy./Diag. 0.80E-01    1.5     0.15349904     -5413.2092054324 -2.71E+00
   346 Broy./Diag. 0.80E-01    1.5     0.10840744     -5405.2130811549  8.00E+00
   347 Broy./Diag. 0.80E-01    1.5     0.55276338     -5411.1855260870 -5.97E+00
   348 Broy./Diag. 0.80E-01    1.5     0.19426015     -5415.7324052233 -4.55E+00
   349 Broy./Diag. 0.80E-01    1.5     0.11684280     -5423.1821280981 -7.45E+00
   350 Broy./Diag. 0.80E-01    1.5     0.04174215     -5423.8161058002 -6.34E-01
   351 Broy./Diag. 0.80E-01    1.5     0.08465128     -5423.0110600903  8.05E-01
   352 Broy./Diag. 0.80E-01    1.5     0.08036935     -5423.5351425418 -5.24E-01
   353 Broy./Diag. 0.80E-01    1.5     0.02190698     -5419.7352338621  3.80E+00
   354 Broy./Diag. 0.80E-01    1.5     0.04563072     -5419.5160715126  2.19E-01
   355 Broy./Diag. 0.80E-01    1.5     0.04358516     -5417.5613312424  1.95E+00
   356 Broy./Diag. 0.80E-01    1.5     0.30223382     -5419.6481057309 -2.09E+00
   357 Broy./Diag. 0.80E-01    1.5     0.10438196     -5416.5095903550  3.14E+00
   358 Broy./Diag. 0.80E-01    1.5     0.10673461     -5416.5314759607 -2.19E-02
   359 Broy./Diag. 0.80E-01    1.5     0.11477049     -5421.7175917266 -5.19E+00
   360 Broy./Diag. 0.80E-01    1.5     0.10271616     -5423.2688878649 -1.55E+00
   361 Broy./Diag. 0.80E-01    1.5     0.20653520     -5424.0224363877 -7.54E-01
   362 Broy./Diag. 0.80E-01    1.5     0.11631058     -5421.8705498409  2.15E+00
   363 Broy./Diag. 0.80E-01    1.5     0.06440792     -5423.1846770043 -1.31E+00
   364 Broy./Diag. 0.80E-01    1.5     0.11411831     -5422.6404865122  5.44E-01
   365 Broy./Diag. 0.80E-01    1.5     0.17561696     -5421.7235980339  9.17E-01
   366 Broy./Diag. 0.80E-01    1.5     0.20747939     -5423.8371622215 -2.11E+00
   367 Broy./Diag. 0.80E-01    1.5     0.06420479     -5415.2510240945  8.59E+00
   368 Broy./Diag. 0.80E-01    1.5     0.18796231     -5415.4008282209 -1.50E-01
   369 Broy./Diag. 0.80E-01    1.5     0.19581238     -5422.3182988963 -6.92E+00
   370 Broy./Diag. 0.80E-01    1.5     0.10530844     -5424.1650895297 -1.85E+00
   371 Broy./Diag. 0.80E-01    1.5     0.03936119     -5426.2063809700 -2.04E+00
   372 Broy./Diag. 0.80E-01    1.5     0.16103138     -5422.7504497893  3.46E+00
   373 Broy./Diag. 0.80E-01    1.5     0.16720418     -5415.2622810870  7.49E+00
   374 Broy./Diag. 0.80E-01    1.5     0.11933850     -5424.6983876443 -9.44E+00
   375 Broy./Diag. 0.80E-01    1.5     0.11478609     -5425.0836385255 -3.85E-01
   376 Broy./Diag. 0.80E-01    1.5     0.04806561     -5422.9383851815  2.15E+00
   377 Broy./Diag. 0.80E-01    1.5     0.11584621     -5424.2113866522 -1.27E+00
