 DBCSR| CPU Multiplication driver                                           XSMM
 DBCSR| Multrec recursion limit                                              512
 DBCSR| Multiplication stack size                                           1000
 DBCSR| Maximum elements for images                                    UNLIMITED
 DBCSR| Multiplicative factor virtual images                                   1
 DBCSR| Use multiplication densification                                       T
 DBCSR| Multiplication size stacks                                             3
 DBCSR| Number of 3D layers                                               SINGLE
 DBCSR| Use MPI memory allocation                                              T
 DBCSR| Use RMA algorithm                                                      F
 DBCSR| Use Communication thread                                               T
 DBCSR| Communication thread load                                             87


  **** **** ******  **  PROGRAM STARTED AT               2022-11-28 15:29:19.624
 ***** ** ***  *** **   PROGRAM STARTED ON                         node-c12g-005
 **    ****   ******    PROGRAM STARTED BY                               mmm1169
 ***** **    ** ** **   PROGRAM PROCESS ID                                 14298
  **** **  *******  **  PROGRAM STARTED IN /lustre/scratch/mmm1169/work/other/cp
                                           2k_forum/ni_bulk/final/slab/multiplic
                                           ity-25/optimise-alpha-scf-1e-3-rs-1e-
                                           4/folder_1E-3

 CP2K| version string:                                          CP2K version 7.1
 CP2K| source code revision number:                                  git:e635599
 CP2K| cp2kflags: libint fftw3 libxc elpa parallel mpi3 scalapack quip xsmm spgl
 CP2K|            ib
 CP2K| is freely available from                            https://www.cp2k.org/
 CP2K| Program compiled at                          Wed  8 Jan 12:34:35 GMT 2020
 CP2K| Program compiled on                                               login01
 CP2K| Program compiled for                                                local
 CP2K| Data directory path     /shared/ucl/apps/cp2k/7.1/gnu-4.9.2/cp2k-7.1/data
 CP2K| Input file name                                                 input.inp

 GLOBAL| Force Environment number                                              1
 GLOBAL| Basis set file name                                        BASIS_MOLOPT
 GLOBAL| Potential file name                                      GTH_POTENTIALS
 GLOBAL| MM Potential file name                                     MM_POTENTIAL
 GLOBAL| Coordinate file name                                      __STD_INPUT__
 GLOBAL| Method name                                                        CP2K
 GLOBAL| Project name                                                    Ni_bulk
 GLOBAL| Preferred FFT library                                             FFTW3
 GLOBAL| Preferred diagonalization lib.                                     ELPA
 GLOBAL| Run type                                                         ENERGY
 GLOBAL| All-to-all communication in single precision                          F
 GLOBAL| FFTs using library dependent lengths                                  F
 GLOBAL| Global print level                                               MEDIUM
 GLOBAL| MPI I/O enabled                                                       T
 GLOBAL| Total number of message passing processes                            20
 GLOBAL| Number of threads for this process                                    1
 GLOBAL| This output is from process                                           0
 GLOBAL| CPU model name                 Intel(R) Xeon(R) Gold 6248 CPU @ 2.50GHz
 GLOBAL| CPUID                                                              1003

 MEMORY| system memory details [Kb]
 MEMORY|                        rank 0           min           max       average
 MEMORY| MemTotal            197730148     197730148     197730148     197730148
 MEMORY| MemFree             178293352     178293352     178293352     178293352
 MEMORY| Buffers                     0             0             0             0
 MEMORY| Cached               12280064      12280064      12280064      12280064
 MEMORY| Slab                  1031028       1031028       1031028       1031028
 MEMORY| SReclaimable           226928        226928        226928        226928
 MEMORY| MemLikelyFree       190800344     190800344     190800344     190800344


 *** Fundamental physical constants (SI units) ***

 *** Literature: B. J. Mohr and B. N. Taylor,
 ***             CODATA recommended values of the fundamental physical
 ***             constants: 2006, Web Version 5.1
 ***             http://physics.nist.gov/constants

 Speed of light in vacuum [m/s]                             2.99792458000000E+08
 Magnetic constant or permeability of vacuum [N/A**2]       1.25663706143592E-06
 Electric constant or permittivity of vacuum [F/m]          8.85418781762039E-12
 Planck constant (h) [J*s]                                  6.62606896000000E-34
 Planck constant (h-bar) [J*s]                              1.05457162825177E-34
 Elementary charge [C]                                      1.60217648700000E-19
 Electron mass [kg]                                         9.10938215000000E-31
 Electron g factor [ ]                                     -2.00231930436220E+00
 Proton mass [kg]                                           1.67262163700000E-27
 Fine-structure constant                                    7.29735253760000E-03
 Rydberg constant [1/m]                                     1.09737315685270E+07
 Avogadro constant [1/mol]                                  6.02214179000000E+23
 Boltzmann constant [J/K]                                   1.38065040000000E-23
 Atomic mass unit [kg]                                      1.66053878200000E-27
 Bohr radius [m]                                            5.29177208590000E-11

 *** Conversion factors ***

 [u] -> [a.u.]                                              1.82288848426455E+03
 [Angstrom] -> [Bohr] = [a.u.]                              1.88972613288564E+00
 [a.u.] = [Bohr] -> [Angstrom]                              5.29177208590000E-01
 [a.u.] -> [s]                                              2.41888432650478E-17
 [a.u.] -> [fs]                                             2.41888432650478E-02
 [a.u.] -> [J]                                              4.35974393937059E-18
 [a.u.] -> [N]                                              8.23872205491840E-08
 [a.u.] -> [K]                                              3.15774647902944E+05
 [a.u.] -> [kJ/mol]                                         2.62549961709828E+03
 [a.u.] -> [kcal/mol]                                       6.27509468713739E+02
 [a.u.] -> [Pa]                                             2.94210107994716E+13
 [a.u.] -> [bar]                                            2.94210107994716E+08
 [a.u.] -> [atm]                                            2.90362800883016E+08
 [a.u.] -> [eV]                                             2.72113838565563E+01
 [a.u.] -> [Hz]                                             6.57968392072181E+15
 [a.u.] -> [1/cm] (wave numbers)                            2.19474631370540E+05
 [a.u./Bohr**2] -> [1/cm]                                   5.14048714338585E+03
 

 CELL_TOP| Volume [angstrom^3]:                                          983.250
 CELL_TOP| Vector a [angstrom     7.012     0.000     0.000    |a| =       7.012
 CELL_TOP| Vector b [angstrom     0.000     7.012     0.000    |b| =       7.012
 CELL_TOP| Vector c [angstrom     0.000     0.000    20.000    |c| =      20.000
 CELL_TOP| Angle (b,c), alpha [degree]:                                   90.000
 CELL_TOP| Angle (a,c), beta  [degree]:                                   90.000
 CELL_TOP| Angle (a,b), gamma [degree]:                                   90.000
 CELL_TOP| Numerically orthorhombic:                                         YES

 GENERATE|  Preliminary Number of Bonds generated:                             0
 GENERATE|  Achieved consistency in connectivity generation.

 CELL| Volume [angstrom^3]:                                              983.250
 CELL| Vector a [angstrom]:       7.012     0.000     0.000    |a| =       7.012
 CELL| Vector b [angstrom]:       0.000     7.012     0.000    |b| =       7.012
 CELL| Vector c [angstrom]:       0.000     0.000    20.000    |c| =      20.000
 CELL| Angle (b,c), alpha [degree]:                                       90.000
 CELL| Angle (a,c), beta  [degree]:                                       90.000
 CELL| Angle (a,b), gamma [degree]:                                       90.000
 CELL| Numerically orthorhombic:                                             YES

 CELL_REF| Volume [angstrom^3]:                                          983.250
 CELL_REF| Vector a [angstrom     7.012     0.000     0.000    |a| =       7.012
 CELL_REF| Vector b [angstrom     0.000     7.012     0.000    |b| =       7.012
 CELL_REF| Vector c [angstrom     0.000     0.000    20.000    |c| =      20.000
 CELL_REF| Angle (b,c), alpha [degree]:                                   90.000
 CELL_REF| Angle (a,c), beta  [degree]:                                   90.000
 CELL_REF| Angle (a,b), gamma [degree]:                                   90.000
 CELL_REF| Numerically orthorhombic:                                         YES

 *******************************************************************************
 *******************************************************************************
 **                                                                           **
 **     #####                         ##              ##                      **
 **    ##   ##            ##          ##              ##                      **
 **   ##     ##                       ##            ######                    **
 **   ##     ##  ##   ##  ##   #####  ##  ##   ####   ##    #####    #####    **
 **   ##     ##  ##   ##  ##  ##      ## ##   ##      ##   ##   ##  ##   ##   **
 **   ##  ## ##  ##   ##  ##  ##      ####     ###    ##   ######   ######    **
 **    ##  ###   ##   ##  ##  ##      ## ##      ##   ##   ##       ##        **
 **     #######   #####   ##   #####  ##  ##  ####    ##    #####   ##        **
 **           ##                                                    ##        **
 **                                                                           **
 **                                                ... make the atoms dance   **
 **                                                                           **
 **            Copyright (C) by CP2K developers group (2000 - 2019)           **
 **                                                                           **
 *******************************************************************************

 *** WARNING in qs_environment.F:1296 :: More added MOs requested for beta ***
 *** spin than available.                                                  ***


 *** WARNING in qs_environment.F:1310 :: More added MOs requested than ***
 *** available. The full set of unoccupied MOs will be used.           ***


 DFT| Spin unrestricted (spin-polarized) Kohn-Sham calculation               UKS
 DFT| Multiplicity                                                            25
 DFT| Number of spin states                                                    2
 DFT| Charge                                                                   0
 DFT| Self-interaction correction (SIC)                                       NO
 DFT| Cutoffs: density                                              1.000000E-10
 DFT|          gradient                                             1.000000E-10
 DFT|          tau                                                  1.000000E-10
 DFT|          cutoff_smoothing_range                               0.000000E+00
 DFT| XC density smoothing                                                  NONE
 DFT| XC derivatives                                                          PW
 FUNCTIONAL| ROUTINE=NEW
 FUNCTIONAL| PBE:
 FUNCTIONAL| J.P.Perdew, K.Burke, M.Ernzerhof, Phys. Rev. Letter, vol. 77, n 18,
 FUNCTIONAL|  pp. 3865-3868, (1996){spin polarized}                             

 QS| Method:                                                                 GPW
 QS| Density plane wave grid type                        NON-SPHERICAL FULLSPACE
 QS| Number of grid levels:                                                    5
 QS| Density cutoff [a.u.]:                                                300.0
 QS| Multi grid cutoff [a.u.]: 1) grid level                               300.0
 QS|                           2) grid level                               100.0
 QS|                           3) grid level                                33.3
 QS|                           4) grid level                                11.1
 QS|                           5) grid level                                 3.7
 QS| Grid level progression factor:                                          3.0
 QS| Relative density cutoff [a.u.]:                                        30.0
 QS| Consistent realspace mapping and integration 
 QS| Interaction thresholds: eps_pgf_orb:                                1.0E-06
 QS|                         eps_filter_matrix:                          0.0E+00
 QS|                         eps_core_charge:                            1.0E-14
 QS|                         eps_rho_gspace:                             1.0E-12
 QS|                         eps_rho_rspace:                             1.0E-12
 QS|                         eps_gvg_rspace:                             1.0E-06
 QS|                         eps_ppl:                                    1.0E-02
 QS|                         eps_ppnl:                                   1.0E-08


 ATOMIC KIND INFORMATION

  1. Atomic kind: Ni_i                                  Number of atoms:      16

     Orbital Basis Set                                        DZVP-MOLOPT-SR-GTH

       Number of orbital shell sets:                                           1
       Number of orbital shells:                                               8
       Number of primitive Cartesian functions:                                6
       Number of Cartesian basis functions:                                   31
       Number of spherical basis functions:                                   26
       Norm type:                                                              2

       Normalised Cartesian orbitals:

                        Set   Shell   Orbital            Exponent    Coefficient

                          1       1    2s               10.077428      -0.684558
                                                         5.847736      -0.844524
                                                         2.494033       1.088856
                                                         0.988355       0.395503
                                                         0.344978       0.010224
                                                         0.099466      -0.003250

                          1       2    3s               10.077428       0.096747
                                                         5.847736       0.162504
                                                         2.494033      -0.297192
                                                         0.988355      -0.319752
                                                         0.344978       0.088318
                                                         0.099466       0.118587

                          1       3    4s               10.077428       0.036437
                                                         5.847736      -0.381480
                                                         2.494033       0.003759
                                                         0.988355      -1.048256
                                                         0.344978       0.855825
                                                         0.099466      -0.176350

                          1       4    3px              10.077428      -3.133913
                                                         5.847736       3.027656
                                                         2.494033       2.353227
                                                         0.988355       0.554184
                                                         0.344978       0.019462
                                                         0.099466      -0.000291
                          1       4    3py              10.077428      -3.133913
                                                         5.847736       3.027656
                                                         2.494033       2.353227
                                                         0.988355       0.554184
                                                         0.344978       0.019462
                                                         0.099466      -0.000291
                          1       4    3pz              10.077428      -3.133913
                                                         5.847736       3.027656
                                                         2.494033       2.353227
                                                         0.988355       0.554184
                                                         0.344978       0.019462
                                                         0.099466      -0.000291

                          1       5    4px              10.077428      -0.112729
                                                         5.847736      -0.114008
                                                         2.494033      -0.347303
                                                         0.988355      -0.110323
                                                         0.344978       0.154096
                                                         0.099466       0.058386
                          1       5    4py              10.077428      -0.112729
                                                         5.847736      -0.114008
                                                         2.494033      -0.347303
                                                         0.988355      -0.110323
                                                         0.344978       0.154096
                                                         0.099466       0.058386
                          1       5    4pz              10.077428      -0.112729
                                                         5.847736      -0.114008
                                                         2.494033      -0.347303
                                                         0.988355      -0.110323
                                                         0.344978       0.154096
                                                         0.099466       0.058386

                          1       6    4dx2             10.077428       8.232726
                                                         5.847736       9.105758
                                                         2.494033       2.849835
                                                         0.988355       0.554319
                                                         0.344978       0.067245
                                                         0.099466       0.001940
                          1       6    4dxy             10.077428      14.259500
                                                         5.847736      15.771636
                                                         2.494033       4.936060
                                                         0.988355       0.960109
                                                         0.344978       0.116472
                                                         0.099466       0.003360
                          1       6    4dxz             10.077428      14.259500
                                                         5.847736      15.771636
                                                         2.494033       4.936060
                                                         0.988355       0.960109
                                                         0.344978       0.116472
                                                         0.099466       0.003360
                          1       6    4dy2             10.077428       8.232726
                                                         5.847736       9.105758
                                                         2.494033       2.849835
                                                         0.988355       0.554319
                                                         0.344978       0.067245
                                                         0.099466       0.001940
                          1       6    4dyz             10.077428      14.259500
                                                         5.847736      15.771636
                                                         2.494033       4.936060
                                                         0.988355       0.960109
                                                         0.344978       0.116472
                                                         0.099466       0.003360
                          1       6    4dz2             10.077428       8.232726
                                                         5.847736       9.105758
                                                         2.494033       2.849835
                                                         0.988355       0.554319
                                                         0.344978       0.067245
                                                         0.099466       0.001940

                          1       7    5dx2             10.077428      -2.715373
                                                         5.847736      -4.020640
                                                         2.494033      -1.397569
                                                         0.988355      -0.076143
                                                         0.344978       0.033435
                                                         0.099466       0.026032
                          1       7    5dxy             10.077428      -4.703164
                                                         5.847736      -6.963952
                                                         2.494033      -2.420661
                                                         0.988355      -0.131883
                                                         0.344978       0.057911
                                                         0.099466       0.045088
                          1       7    5dxz             10.077428      -4.703164
                                                         5.847736      -6.963952
                                                         2.494033      -2.420661
                                                         0.988355      -0.131883
                                                         0.344978       0.057911
                                                         0.099466       0.045088
                          1       7    5dy2             10.077428      -2.715373
                                                         5.847736      -4.020640
                                                         2.494033      -1.397569
                                                         0.988355      -0.076143
                                                         0.344978       0.033435
                                                         0.099466       0.026032
                          1       7    5dyz             10.077428      -4.703164
                                                         5.847736      -6.963952
                                                         2.494033      -2.420661
                                                         0.988355      -0.131883
                                                         0.344978       0.057911
                                                         0.099466       0.045088
                          1       7    5dz2             10.077428      -2.715373
                                                         5.847736      -4.020640
                                                         2.494033      -1.397569
                                                         0.988355      -0.076143
                                                         0.344978       0.033435
                                                         0.099466       0.026032

                          1       8    5fx3             10.077428      -0.467694
                                                         5.847736       0.618100
                                                         2.494033       0.066069
                                                         0.988355       0.262898
                                                         0.344978       0.004720
                                                         0.099466       0.007748
                          1       8    5fx2y            10.077428      -1.045795
                                                         5.847736       1.382114
                                                         2.494033       0.147734
                                                         0.988355       0.587859
                                                         0.344978       0.010555
                                                         0.099466       0.017325
                          1       8    5fx2z            10.077428      -1.045795
                                                         5.847736       1.382114
                                                         2.494033       0.147734
                                                         0.988355       0.587859
                                                         0.344978       0.010555
                                                         0.099466       0.017325
                          1       8    5fxy2            10.077428      -1.045795
                                                         5.847736       1.382114
                                                         2.494033       0.147734
                                                         0.988355       0.587859
                                                         0.344978       0.010555
                                                         0.099466       0.017325
                          1       8    5fxyz            10.077428      -1.811371
                                                         5.847736       2.393892
                                                         2.494033       0.255883
                                                         0.988355       1.018201
                                                         0.344978       0.018282
                                                         0.099466       0.030008
                          1       8    5fxz2            10.077428      -1.045795
                                                         5.847736       1.382114
                                                         2.494033       0.147734
                                                         0.988355       0.587859
                                                         0.344978       0.010555
                                                         0.099466       0.017325
                          1       8    5fy3             10.077428      -0.467694
                                                         5.847736       0.618100
                                                         2.494033       0.066069
                                                         0.988355       0.262898
                                                         0.344978       0.004720
                                                         0.099466       0.007748
                          1       8    5fy2z            10.077428      -1.045795
                                                         5.847736       1.382114
                                                         2.494033       0.147734
                                                         0.988355       0.587859
                                                         0.344978       0.010555
                                                         0.099466       0.017325
                          1       8    5fyz2            10.077428      -1.045795
                                                         5.847736       1.382114
                                                         2.494033       0.147734
                                                         0.988355       0.587859
                                                         0.344978       0.010555
                                                         0.099466       0.017325
                          1       8    5fz3             10.077428      -0.467694
                                                         5.847736       0.618100
                                                         2.494033       0.066069
                                                         0.988355       0.262898
                                                         0.344978       0.004720
                                                         0.099466       0.007748

     GTH Potential information for                                   GTH-PBE-q18

       Description:                       Goedecker-Teter-Hutter pseudopotential
                                           Goedecker et al., PRB 54, 1703 (1996)
                                          Hartwigsen et al., PRB 58, 3641 (1998)
                                                      Krack, TCA 114, 145 (2005)

       Gaussian exponent of the core charge distribution:               4.081633
       Electronic configuration (s p d ...):                           4   6   8

       Parameters of the local part of the GTH pseudopotential:

                          rloc        C1          C2          C3          C4
                        0.350000    2.102166    0.648484

       Parameters of the non-local part of the GTH pseudopotential:

                   l      r(l)      h(i,j,l)

                   0    0.261295    0.622658    9.970227
                                    9.970227  -12.871507
                   1    0.224253  -11.142708   12.429566
                                   12.429566  -14.706861
                   2    0.215348  -12.628146

  2. Atomic kind: Ni_b                                  Number of atoms:      16

     Orbital Basis Set                                        DZVP-MOLOPT-SR-GTH

       Number of orbital shell sets:                                           1
       Number of orbital shells:                                               8
       Number of primitive Cartesian functions:                                6
       Number of Cartesian basis functions:                                   31
       Number of spherical basis functions:                                   26
       Norm type:                                                              2

       Normalised Cartesian orbitals:

                        Set   Shell   Orbital            Exponent    Coefficient

                          1       1    2s               10.077428      -0.684558
                                                         5.847736      -0.844524
                                                         2.494033       1.088856
                                                         0.988355       0.395503
                                                         0.344978       0.010224
                                                         0.099466      -0.003250

                          1       2    3s               10.077428       0.096747
                                                         5.847736       0.162504
                                                         2.494033      -0.297192
                                                         0.988355      -0.319752
                                                         0.344978       0.088318
                                                         0.099466       0.118587

                          1       3    4s               10.077428       0.036437
                                                         5.847736      -0.381480
                                                         2.494033       0.003759
                                                         0.988355      -1.048256
                                                         0.344978       0.855825
                                                         0.099466      -0.176350

                          1       4    3px              10.077428      -3.133913
                                                         5.847736       3.027656
                                                         2.494033       2.353227
                                                         0.988355       0.554184
                                                         0.344978       0.019462
                                                         0.099466      -0.000291
                          1       4    3py              10.077428      -3.133913
                                                         5.847736       3.027656
                                                         2.494033       2.353227
                                                         0.988355       0.554184
                                                         0.344978       0.019462
                                                         0.099466      -0.000291
                          1       4    3pz              10.077428      -3.133913
                                                         5.847736       3.027656
                                                         2.494033       2.353227
                                                         0.988355       0.554184
                                                         0.344978       0.019462
                                                         0.099466      -0.000291

                          1       5    4px              10.077428      -0.112729
                                                         5.847736      -0.114008
                                                         2.494033      -0.347303
                                                         0.988355      -0.110323
                                                         0.344978       0.154096
                                                         0.099466       0.058386
                          1       5    4py              10.077428      -0.112729
                                                         5.847736      -0.114008
                                                         2.494033      -0.347303
                                                         0.988355      -0.110323
                                                         0.344978       0.154096
                                                         0.099466       0.058386
                          1       5    4pz              10.077428      -0.112729
                                                         5.847736      -0.114008
                                                         2.494033      -0.347303
                                                         0.988355      -0.110323
                                                         0.344978       0.154096
                                                         0.099466       0.058386

                          1       6    4dx2             10.077428       8.232726
                                                         5.847736       9.105758
                                                         2.494033       2.849835
                                                         0.988355       0.554319
                                                         0.344978       0.067245
                                                         0.099466       0.001940
                          1       6    4dxy             10.077428      14.259500
                                                         5.847736      15.771636
                                                         2.494033       4.936060
                                                         0.988355       0.960109
                                                         0.344978       0.116472
                                                         0.099466       0.003360
                          1       6    4dxz             10.077428      14.259500
                                                         5.847736      15.771636
                                                         2.494033       4.936060
                                                         0.988355       0.960109
                                                         0.344978       0.116472
                                                         0.099466       0.003360
                          1       6    4dy2             10.077428       8.232726
                                                         5.847736       9.105758
                                                         2.494033       2.849835
                                                         0.988355       0.554319
                                                         0.344978       0.067245
                                                         0.099466       0.001940
                          1       6    4dyz             10.077428      14.259500
                                                         5.847736      15.771636
                                                         2.494033       4.936060
                                                         0.988355       0.960109
                                                         0.344978       0.116472
                                                         0.099466       0.003360
                          1       6    4dz2             10.077428       8.232726
                                                         5.847736       9.105758
                                                         2.494033       2.849835
                                                         0.988355       0.554319
                                                         0.344978       0.067245
                                                         0.099466       0.001940

                          1       7    5dx2             10.077428      -2.715373
                                                         5.847736      -4.020640
                                                         2.494033      -1.397569
                                                         0.988355      -0.076143
                                                         0.344978       0.033435
                                                         0.099466       0.026032
                          1       7    5dxy             10.077428      -4.703164
                                                         5.847736      -6.963952
                                                         2.494033      -2.420661
                                                         0.988355      -0.131883
                                                         0.344978       0.057911
                                                         0.099466       0.045088
                          1       7    5dxz             10.077428      -4.703164
                                                         5.847736      -6.963952
                                                         2.494033      -2.420661
                                                         0.988355      -0.131883
                                                         0.344978       0.057911
                                                         0.099466       0.045088
                          1       7    5dy2             10.077428      -2.715373
                                                         5.847736      -4.020640
                                                         2.494033      -1.397569
                                                         0.988355      -0.076143
                                                         0.344978       0.033435
                                                         0.099466       0.026032
                          1       7    5dyz             10.077428      -4.703164
                                                         5.847736      -6.963952
                                                         2.494033      -2.420661
                                                         0.988355      -0.131883
                                                         0.344978       0.057911
                                                         0.099466       0.045088
                          1       7    5dz2             10.077428      -2.715373
                                                         5.847736      -4.020640
                                                         2.494033      -1.397569
                                                         0.988355      -0.076143
                                                         0.344978       0.033435
                                                         0.099466       0.026032

                          1       8    5fx3             10.077428      -0.467694
                                                         5.847736       0.618100
                                                         2.494033       0.066069
                                                         0.988355       0.262898
                                                         0.344978       0.004720
                                                         0.099466       0.007748
                          1       8    5fx2y            10.077428      -1.045795
                                                         5.847736       1.382114
                                                         2.494033       0.147734
                                                         0.988355       0.587859
                                                         0.344978       0.010555
                                                         0.099466       0.017325
                          1       8    5fx2z            10.077428      -1.045795
                                                         5.847736       1.382114
                                                         2.494033       0.147734
                                                         0.988355       0.587859
                                                         0.344978       0.010555
                                                         0.099466       0.017325
                          1       8    5fxy2            10.077428      -1.045795
                                                         5.847736       1.382114
                                                         2.494033       0.147734
                                                         0.988355       0.587859
                                                         0.344978       0.010555
                                                         0.099466       0.017325
                          1       8    5fxyz            10.077428      -1.811371
                                                         5.847736       2.393892
                                                         2.494033       0.255883
                                                         0.988355       1.018201
                                                         0.344978       0.018282
                                                         0.099466       0.030008
                          1       8    5fxz2            10.077428      -1.045795
                                                         5.847736       1.382114
                                                         2.494033       0.147734
                                                         0.988355       0.587859
                                                         0.344978       0.010555
                                                         0.099466       0.017325
                          1       8    5fy3             10.077428      -0.467694
                                                         5.847736       0.618100
                                                         2.494033       0.066069
                                                         0.988355       0.262898
                                                         0.344978       0.004720
                                                         0.099466       0.007748
                          1       8    5fy2z            10.077428      -1.045795
                                                         5.847736       1.382114
                                                         2.494033       0.147734
                                                         0.988355       0.587859
                                                         0.344978       0.010555
                                                         0.099466       0.017325
                          1       8    5fyz2            10.077428      -1.045795
                                                         5.847736       1.382114
                                                         2.494033       0.147734
                                                         0.988355       0.587859
                                                         0.344978       0.010555
                                                         0.099466       0.017325
                          1       8    5fz3             10.077428      -0.467694
                                                         5.847736       0.618100
                                                         2.494033       0.066069
                                                         0.988355       0.262898
                                                         0.344978       0.004720
                                                         0.099466       0.007748

     GTH Potential information for                                   GTH-PBE-q18

       Description:                       Goedecker-Teter-Hutter pseudopotential
                                           Goedecker et al., PRB 54, 1703 (1996)
                                          Hartwigsen et al., PRB 58, 3641 (1998)
                                                      Krack, TCA 114, 145 (2005)

       Gaussian exponent of the core charge distribution:               4.081633
       Electronic configuration (s p d ...):                           4   6   8

       Parameters of the local part of the GTH pseudopotential:

                          rloc        C1          C2          C3          C4
                        0.350000    2.102166    0.648484

       Parameters of the non-local part of the GTH pseudopotential:

                   l      r(l)      h(i,j,l)

                   0    0.261295    0.622658    9.970227
                                    9.970227  -12.871507
                   1    0.224253  -11.142708   12.429566
                                   12.429566  -14.706861
                   2    0.215348  -12.628146


 MOLECULE KIND INFORMATION


 All atoms are their own molecule, skipping detailed information


 TOTAL NUMBERS AND MAXIMUM NUMBERS

  Total number of            - Atomic kinds:                                   2
                             - Atoms:                                         32
                             - Shell sets:                                    32
                             - Shells:                                       256
                             - Primitive Cartesian functions:                192
                             - Cartesian basis functions:                    992
                             - Spherical basis functions:                    832

  Maximum angular momentum of- Orbital basis functions:                        3
                             - Local part of the GTH pseudopotential:          2
                             - Non-local part of the GTH pseudopotential:      3


 MODULE QUICKSTEP:  ATOMIC COORDINATES IN angstrom

  Atom  Kind  Element       X           Y           Z          Z(eff)       Mass

       1     1 Ni  28    0.000000    0.000000    0.000000     18.00      58.6934
       2     2 Ni  28    0.000000    1.752900    1.752900     18.00      58.6934
       3     2 Ni  28    1.752900    0.000000    1.752900     18.00      58.6934
       4     1 Ni  28    1.752900    1.752900    0.000000     18.00      58.6934
       5     1 Ni  28    3.505798    0.000000    0.000000     18.00      58.6934
       6     2 Ni  28    3.505798    1.752900    1.752900     18.00      58.6934
       7     2 Ni  28    5.258698    0.000000    1.752900     18.00      58.6934
       8     1 Ni  28    5.258698    1.752900    0.000000     18.00      58.6934
       9     1 Ni  28    0.000000    3.505798    0.000000     18.00      58.6934
      10     2 Ni  28    0.000000    5.258698    1.752900     18.00      58.6934
      11     2 Ni  28    1.752900    3.505798    1.752900     18.00      58.6934
      12     1 Ni  28    1.752900    5.258698    0.000000     18.00      58.6934
      13     1 Ni  28    3.505798    3.505798    0.000000     18.00      58.6934
      14     2 Ni  28    3.505798    5.258698    1.752900     18.00      58.6934
      15     2 Ni  28    5.258698    3.505798    1.752900     18.00      58.6934
      16     1 Ni  28    5.258698    5.258698    0.000000     18.00      58.6934
      17     2 Ni  28    0.000000    0.000000    3.505798     18.00      58.6934
      18     1 Ni  28    0.000000    1.752900    5.258698     18.00      58.6934
      19     1 Ni  28    1.752900    0.000000    5.258698     18.00      58.6934
      20     2 Ni  28    1.752900    1.752900    3.505798     18.00      58.6934
      21     2 Ni  28    3.505798    0.000000    3.505798     18.00      58.6934
      22     1 Ni  28    3.505798    1.752900    5.258698     18.00      58.6934
      23     1 Ni  28    5.258698    0.000000    5.258698     18.00      58.6934
      24     2 Ni  28    5.258698    1.752900    3.505798     18.00      58.6934
      25     2 Ni  28    0.000000    3.505798    3.505798     18.00      58.6934
      26     1 Ni  28    0.000000    5.258698    5.258698     18.00      58.6934
      27     1 Ni  28    1.752900    3.505798    5.258698     18.00      58.6934
      28     2 Ni  28    1.752900    5.258698    3.505798     18.00      58.6934
      29     2 Ni  28    3.505798    3.505798    3.505798     18.00      58.6934
      30     1 Ni  28    3.505798    5.258698    5.258698     18.00      58.6934
      31     1 Ni  28    5.258698    3.505798    5.258698     18.00      58.6934
      32     2 Ni  28    5.258698    5.258698    3.505798     18.00      58.6934




 SCF PARAMETERS         Density guess:                                   RESTART
                        --------------------------------------------------------
                        max_scf:                                             500
                        max_scf_history:                                       0
                        max_diis:                                             10
                        --------------------------------------------------------
                        eps_scf:                                        1.00E-04
                        eps_scf_history:                                0.00E+00
                        eps_diis:                                       1.00E-01
                        eps_eigval:                                     1.00E-05
                        --------------------------------------------------------
                        level_shift [a.u.]:                                 0.00
                        added MOs                                       532  556
                        --------------------------------------------------------
                        Mixing method:                            BROYDEN_MIXING
                                                charge density mixing in g-space
                        --------------------------------------------------------
                        Smear method:                                FERMI_DIRAC
                        Electronic temperature [K]:                        500.0
                        Electronic temperature [a.u.]:                  1.58E-03
                        Accuracy threshold:                             1.00E-10
                        --------------------------------------------------------
                        No outer SCF

 PW_GRID| Information for grid number                                          1
 PW_GRID| Grid distributed over                                    20 processors
 PW_GRID| Real space group dimensions                                    20    1
 PW_GRID| the grid is blocked:                                                NO
 PW_GRID| Cutoff [a.u.]                                                    300.0
 PW_GRID| spherical cutoff:                                                   NO
 PW_GRID|   Bounds   1            -54      53                Points:         108
 PW_GRID|   Bounds   2            -54      53                Points:         108
 PW_GRID|   Bounds   3           -150     149                Points:         300
 PW_GRID| Volume element (a.u.^3)  0.1896E-02     Volume (a.u.^3)      6635.2971
 PW_GRID| Grid span                                                    FULLSPACE
 PW_GRID|   Distribution                         Average         Max         Min
 PW_GRID|   G-Vectors                           174960.0      174960      174960
 PW_GRID|   G-Rays                                1620.0        1620        1620
 PW_GRID|   Real Space Points                   174960.0      194400      162000

 PW_GRID| Information for grid number                                          2
 PW_GRID| Number of the reference grid                                         1
 PW_GRID| Grid distributed over                                    20 processors
 PW_GRID| Real space group dimensions                                    20    1
 PW_GRID| the grid is blocked:                                                NO
 PW_GRID| Cutoff [a.u.]                                                    100.0
 PW_GRID| spherical cutoff:                                                   NO
 PW_GRID|   Bounds   1            -30      29                Points:          60
 PW_GRID|   Bounds   2            -30      29                Points:          60
 PW_GRID|   Bounds   3            -90      89                Points:         180
 PW_GRID| Volume element (a.u.^3)  0.1024E-01     Volume (a.u.^3)      6635.2971
 PW_GRID| Grid span                                                    FULLSPACE
 PW_GRID|   Distribution                         Average         Max         Min
 PW_GRID|   G-Vectors                            32400.0       32640       32160
 PW_GRID|   G-Rays                                 540.0         544         536
 PW_GRID|   Real Space Points                    32400.0       32400       32400

 PW_GRID| Information for grid number                                          3
 PW_GRID| Number of the reference grid                                         1
 PW_GRID| Grid distributed over                                    20 processors
 PW_GRID| Real space group dimensions                                    20    1
 PW_GRID| the grid is blocked:                                                NO
 PW_GRID| Cutoff [a.u.]                                                     33.3
 PW_GRID| spherical cutoff:                                                   NO
 PW_GRID|   Bounds   1            -18      17                Points:          36
 PW_GRID|   Bounds   2            -18      17                Points:          36
 PW_GRID|   Bounds   3            -50      49                Points:         100
 PW_GRID| Volume element (a.u.^3)  0.5120E-01     Volume (a.u.^3)      6635.2971
 PW_GRID| Grid span                                                    FULLSPACE
 PW_GRID|   Distribution                         Average         Max         Min
 PW_GRID|   G-Vectors                             6480.0        6588        6300
 PW_GRID|   G-Rays                                 180.0         183         175
 PW_GRID|   Real Space Points                     6480.0        7200        3600

 PW_GRID| Information for grid number                                          4
 PW_GRID| Number of the reference grid                                         1
 PW_GRID| Grid distributed over                                    20 processors
 PW_GRID| Real space group dimensions                                    20    1
 PW_GRID| the grid is blocked:                                                NO
 PW_GRID| Cutoff [a.u.]                                                     11.1
 PW_GRID| spherical cutoff:                                                   NO
 PW_GRID|   Bounds   1            -10       9                Points:          20
 PW_GRID|   Bounds   2            -10       9                Points:          20
 PW_GRID|   Bounds   3            -30      29                Points:          60
 PW_GRID| Volume element (a.u.^3)  0.2765         Volume (a.u.^3)      6635.2971
 PW_GRID| Grid span                                                    FULLSPACE
 PW_GRID|   Distribution                         Average         Max         Min
 PW_GRID|   G-Vectors                             1200.0        1320        1060
 PW_GRID|   G-Rays                                  60.0          66          53
 PW_GRID|   Real Space Points                     1200.0        1200        1200

 PW_GRID| Information for grid number                                          5
 PW_GRID| Number of the reference grid                                         1
 PW_GRID| Grid distributed over                                    20 processors
 PW_GRID| Real space group dimensions                                     4    5
 PW_GRID| the grid is blocked:                                                NO
 PW_GRID| Cutoff [a.u.]                                                      3.7
 PW_GRID| spherical cutoff:                                                   NO
 PW_GRID|   Bounds   1             -6       5                Points:          12
 PW_GRID|   Bounds   2             -6       5                Points:          12
 PW_GRID|   Bounds   3            -18      17                Points:          36
 PW_GRID| Volume element (a.u.^3)   1.280         Volume (a.u.^3)      6635.2971
 PW_GRID| Grid span                                                    FULLSPACE
 PW_GRID|   Distribution                         Average         Max         Min
 PW_GRID|   G-Vectors                              259.2         300         204
 PW_GRID|   G-Rays                                  21.6          25          17
 PW_GRID|   Real Space Points                      259.2         324         216

 POISSON| Solver                                                        PERIODIC
 POISSON| Periodicity                                                        XYZ

 RS_GRID| Information for grid number                                          1
 RS_GRID|   Bounds   1            -54      53                Points:         108
 RS_GRID|   Bounds   2            -54      53                Points:         108
 RS_GRID|   Bounds   3           -150     149                Points:         300
 RS_GRID| Real space distribution over                                 20 groups
 RS_GRID| Real space distribution along direction                              3
 RS_GRID| Border size                                                         28
 RS_GRID|   Distribution                         Average         Max         Min
 RS_GRID|   Planes                                  71.0          71          71

 RS_GRID| Information for grid number                                          2
 RS_GRID|   Bounds   1            -30      29                Points:          60
 RS_GRID|   Bounds   2            -30      29                Points:          60
 RS_GRID|   Bounds   3            -90      89                Points:         180
 RS_GRID| Real space distribution over                                 20 groups
 RS_GRID| Real space distribution along direction                              3
 RS_GRID| Border size                                                         28
 RS_GRID|   Distribution                         Average         Max         Min
 RS_GRID|   Planes                                  65.0          65          65

 RS_GRID| Information for grid number                                          3
 RS_GRID|   Bounds   1            -18      17                Points:          36
 RS_GRID|   Bounds   2            -18      17                Points:          36
 RS_GRID|   Bounds   3            -50      49                Points:         100
 RS_GRID| Real space fully replicated
 RS_GRID| Group size                                                           1

 RS_GRID| Information for grid number                                          4
 RS_GRID|   Bounds   1            -10       9                Points:          20
 RS_GRID|   Bounds   2            -10       9                Points:          20
 RS_GRID|   Bounds   3            -30      29                Points:          60
 RS_GRID| Real space fully replicated
 RS_GRID| Group size                                                           1

 RS_GRID| Information for grid number                                          5
 RS_GRID|   Bounds   1             -6       5                Points:          12
 RS_GRID|   Bounds   2             -6       5                Points:          12
 RS_GRID|   Bounds   3            -18      17                Points:          36
 RS_GRID| Real space fully replicated
 RS_GRID| Group size                                                           1

 Spin 1

 Number of electrons:                                                        300
 Number of occupied orbitals:                                                300
 Number of molecular orbitals:                                               832

 Spin 2

 Number of electrons:                                                        276
 Number of occupied orbitals:                                                276
 Number of molecular orbitals:                                               832

 Number of orbital functions:                                                832
 Number of independent orbital functions:                                    832

 Extrapolation method: initial_guess


 SCF WAVEFUNCTION OPTIMIZATION

  Step     Update method      Time    Convergence         Total energy    Change
  ------------------------------------------------------------------------------
     1 NoMix/Diag. 0.10E-02    1.0     0.97990899     -5414.3017581801 -5.41E+03
     2 Broy./Diag. 0.10E-02    1.4     0.00566273     -5940.0739570632 -5.26E+02
     3 Broy./Diag. 0.10E-02    1.4     0.81388267     -5859.7216352695  8.04E+01
     4 Broy./Diag. 0.10E-02    1.5     0.04241862     -5562.8228304101  2.97E+02
     5 Broy./Diag. 0.10E-02    1.6     0.34921573     -5521.6079583118  4.12E+01
     6 Broy./Diag. 0.10E-02    1.5     0.07919682     -5462.2690946348  5.93E+01
     7 Broy./Diag. 0.10E-02    1.4     0.35041575     -5478.7364306461 -1.65E+01
     8 Broy./Diag. 0.10E-02    1.4     0.29658313     -5497.2911856341 -1.86E+01
     9 Broy./Diag. 0.10E-02    1.5     0.67363745     -5420.8983531628  7.64E+01
    10 Broy./Diag. 0.10E-02    1.4     0.32864954     -5446.0261394392 -2.51E+01
    11 Broy./Diag. 0.10E-02    1.4     0.18700743     -5354.6522983073  9.14E+01
    12 Broy./Diag. 0.10E-02    1.4     0.13452236     -5369.0725951231 -1.44E+01
    13 Broy./Diag. 0.10E-02    1.5     0.12058030     -5364.3433645965  4.73E+00
    14 Broy./Diag. 0.10E-02    1.5     0.02733445     -5381.0480739369 -1.67E+01
    15 Broy./Diag. 0.10E-02    1.5     0.14018049     -5385.6479193844 -4.60E+00
    16 Broy./Diag. 0.10E-02    1.5     0.14144278     -5406.8848642326 -2.12E+01
    17 Broy./Diag. 0.10E-02    1.5     0.02045076     -5396.0680304415  1.08E+01
    18 Broy./Diag. 0.10E-02    1.5     0.00695597     -5394.3516606429  1.72E+00
    19 Broy./Diag. 0.10E-02    1.5     0.05037601     -5394.7157080304 -3.64E-01
    20 Broy./Diag. 0.10E-02    1.5     0.06833828     -5400.2632240683 -5.55E+00
    21 Broy./Diag. 0.10E-02    1.4     0.03546562     -5404.5341610825 -4.27E+00
    22 Broy./Diag. 0.10E-02    1.5     0.02834756     -5404.8315594107 -2.97E-01
    23 Broy./Diag. 0.10E-02    1.5     0.09027133     -5407.1709474329 -2.34E+00
    24 Broy./Diag. 0.10E-02    1.5     0.15964977     -5415.5253558204 -8.35E+00
    25 Broy./Diag. 0.10E-02    1.5     0.14237959     -5421.8897593330 -6.36E+00
    26 Broy./Diag. 0.10E-02    1.5     0.08139703     -5419.9358741800  1.95E+00
    27 Broy./Diag. 0.10E-02    1.5     0.03112863     -5420.9567436450 -1.02E+00
    28 Broy./Diag. 0.10E-02    1.5     0.08006611     -5417.6281404691  3.33E+00
    29 Broy./Diag. 0.10E-02    1.5     0.02243369     -5407.2033580179  1.04E+01
    30 Broy./Diag. 0.10E-02    1.5     0.06761849     -5405.8229588610  1.38E+00
    31 Broy./Diag. 0.10E-02    1.5     0.07119746     -5410.4783435460 -4.66E+00
    32 Broy./Diag. 0.10E-02    1.6     0.05095938     -5418.6932584407 -8.21E+00
    33 Broy./Diag. 0.10E-02    1.6     0.07135191     -5420.1149138039 -1.42E+00
    34 Broy./Diag. 0.10E-02    1.4     0.10769716     -5420.8249605495 -7.10E-01
    35 Broy./Diag. 0.10E-02    1.4     0.02853793     -5420.1065818847  7.18E-01
    36 Broy./Diag. 0.10E-02    1.4     0.08837274     -5417.8128501012  2.29E+00
    37 Broy./Diag. 0.10E-02    1.5     0.02027307     -5417.7387838722  7.41E-02
    38 Broy./Diag. 0.10E-02    1.5     0.03045169     -5418.7666995280 -1.03E+00
    39 Broy./Diag. 0.10E-02    1.4     0.03755028     -5418.5673609125  1.99E-01
    40 Broy./Diag. 0.10E-02    1.4     0.08238991     -5418.9732702521 -4.06E-01
    41 Broy./Diag. 0.10E-02    1.5     0.04577103     -5420.3039693908 -1.33E+00
    42 Broy./Diag. 0.10E-02    1.5     0.04427362     -5419.1970271822  1.11E+00
    43 Broy./Diag. 0.10E-02    1.4     0.04308686     -5420.5298116054 -1.33E+00
    44 Broy./Diag. 0.10E-02    1.5     0.07138528     -5420.3956408047  1.34E-01
    45 Broy./Diag. 0.10E-02    1.5     0.06636519     -5417.2480284203  3.15E+00
    46 Broy./Diag. 0.10E-02    1.5     0.07923859     -5417.3762623663 -1.28E-01
    47 Broy./Diag. 0.10E-02    1.4     0.09056647     -5417.4157663334 -3.95E-02
    48 Broy./Diag. 0.10E-02    1.4     0.10140488     -5414.1444380905  3.27E+00
    49 Broy./Diag. 0.10E-02    1.4     0.03111554     -5414.2537685707 -1.09E-01
    50 Broy./Diag. 0.10E-02    1.4     0.02945411     -5415.6733579918 -1.42E+00
    51 Broy./Diag. 0.10E-02    1.4     0.02886640     -5415.6422284894  3.11E-02
    52 Broy./Diag. 0.10E-02    1.4     0.03497696     -5418.4278569923 -2.79E+00
    53 Broy./Diag. 0.10E-02    1.4     0.06467005     -5418.3610091638  6.68E-02
    54 Broy./Diag. 0.10E-02    1.4     0.09422420     -5419.3421434425 -9.81E-01
    55 Broy./Diag. 0.10E-02    1.4     0.06866996     -5419.9548869363 -6.13E-01
    56 Broy./Diag. 0.10E-02    1.4     0.13006844     -5416.7505159392  3.20E+00
    57 Broy./Diag. 0.10E-02    1.4     0.04695199     -5415.0666941713  1.68E+00
    58 Broy./Diag. 0.10E-02    1.5     0.06921264     -5415.4174552151 -3.51E-01
    59 Broy./Diag. 0.10E-02    1.6     0.09608394     -5413.9735168099  1.44E+00
    60 Broy./Diag. 0.10E-02    1.7     0.02139160     -5414.2434186356 -2.70E-01
    61 Broy./Diag. 0.10E-02    1.5     0.10548991     -5413.8871876133  3.56E-01
    62 Broy./Diag. 0.10E-02    1.4     0.02536490     -5413.8101988822  7.70E-02
    63 Broy./Diag. 0.10E-02    1.4     0.08517955     -5415.4227551106 -1.61E+00
    64 Broy./Diag. 0.10E-02    1.4     0.06857716     -5417.2854092522 -1.86E+00
    65 Broy./Diag. 0.10E-02    1.4     0.05915221     -5415.4252567988  1.86E+00
    66 Broy./Diag. 0.10E-02    1.5     0.10321675     -5415.3908351457  3.44E-02
    67 Broy./Diag. 0.10E-02    1.5     0.02860472     -5415.4702460959 -7.94E-02
    68 Broy./Diag. 0.10E-02    1.5     0.06258998     -5416.4311333791 -9.61E-01
    69 Broy./Diag. 0.10E-02    1.5     0.02122108     -5418.9819274686 -2.55E+00
    70 Broy./Diag. 0.10E-02    1.4     0.03460519     -5419.1154933573 -1.34E-01
    71 Broy./Diag. 0.10E-02    1.4     0.02109807     -5419.7096493120 -5.94E-01
    72 Broy./Diag. 0.10E-02    1.5     0.01189366     -5419.2020604870  5.08E-01
    73 Broy./Diag. 0.10E-02    1.5     0.05006278     -5419.2376893429 -3.56E-02
    74 Broy./Diag. 0.10E-02    1.4     0.05649363     -5418.2223741288  1.02E+00
    75 Broy./Diag. 0.10E-02    1.4     0.02617129     -5420.4412115290 -2.22E+00
    76 Broy./Diag. 0.10E-02    1.4     0.11457599     -5419.8948266357  5.46E-01
    77 Broy./Diag. 0.10E-02    1.4     0.13097638     -5420.8470998260 -9.52E-01
    78 Broy./Diag. 0.10E-02    1.4     0.07357403     -5419.1809573941  1.67E+00
    79 Broy./Diag. 0.10E-02    1.4     0.07763215     -5417.9659984476  1.21E+00
    80 Broy./Diag. 0.10E-02    1.4     0.04407396     -5418.5395168478 -5.74E-01
    81 Broy./Diag. 0.10E-02    1.4     0.02813717     -5418.4260113583  1.14E-01
    82 Broy./Diag. 0.10E-02    1.4     0.01369583     -5416.6401379980  1.79E+00
    83 Broy./Diag. 0.10E-02    1.4     0.11795895     -5416.6334063059  6.73E-03
    84 Broy./Diag. 0.10E-02    1.4     0.02454289     -5419.0257965120 -2.39E+00
    85 Broy./Diag. 0.10E-02    1.4     0.03613710     -5419.0801421433 -5.43E-02
    86 Broy./Diag. 0.10E-02    1.5     0.05243211     -5418.4820364387  5.98E-01
    87 Broy./Diag. 0.10E-02    1.6     0.12435678     -5418.2676246686  2.14E-01
    88 Broy./Diag. 0.10E-02    1.5     0.05690362     -5415.9337772751  2.33E+00
    89 Broy./Diag. 0.10E-02    1.4     0.06263626     -5414.9985750388  9.35E-01
    90 Broy./Diag. 0.10E-02    1.4     0.02976681     -5415.1647534966 -1.66E-01
    91 Broy./Diag. 0.10E-02    1.4     0.06114401     -5416.0487827034 -8.84E-01
    92 Broy./Diag. 0.10E-02    1.4     0.05180328     -5415.6322546305  4.17E-01
    93 Broy./Diag. 0.10E-02    1.4     0.07686822     -5416.6591520858 -1.03E+00
    94 Broy./Diag. 0.10E-02    1.4     0.04053759     -5418.4530039882 -1.79E+00
    95 Broy./Diag. 0.10E-02    1.4     0.07741955     -5419.5475564715 -1.09E+00
    96 Broy./Diag. 0.10E-02    1.4     0.06761005     -5421.7896135909 -2.24E+00
    97 Broy./Diag. 0.10E-02    1.4     0.02677394     -5423.5292255435 -1.74E+00
    98 Broy./Diag. 0.10E-02    1.5     0.02396124     -5424.1121253317 -5.83E-01
    99 Broy./Diag. 0.10E-02    1.4     0.09697094     -5424.0354292508  7.67E-02
   100 Broy./Diag. 0.10E-02    1.5     0.01359848     -5423.1562239070  8.79E-01
   101 Broy./Diag. 0.10E-02    1.5     0.09760785     -5423.7230635433 -5.67E-01
   102 Broy./Diag. 0.10E-02    1.4     0.06294770     -5422.9749773012  7.48E-01
   103 Broy./Diag. 0.10E-02    1.4     0.05227560     -5422.2634571705  7.12E-01
   104 Broy./Diag. 0.10E-02    1.4     0.05183029     -5421.7433404801  5.20E-01
   105 Broy./Diag. 0.10E-02    1.4     0.06868935     -5422.6752378002 -9.32E-01
   106 Broy./Diag. 0.10E-02    1.4     0.05671118     -5424.9473657550 -2.27E+00
   107 Broy./Diag. 0.10E-02    1.5     0.01933864     -5428.1108184485 -3.16E+00
   108 Broy./Diag. 0.10E-02    1.4     0.05757272     -5426.2509759987  1.86E+00
   109 Broy./Diag. 0.10E-02    1.4     0.05831923     -5424.9088401464  1.34E+00
   110 Broy./Diag. 0.10E-02    1.4     0.05986371     -5424.0996578783  8.09E-01
   111 Broy./Diag. 0.10E-02    1.4     0.03873235     -5423.8758444907  2.24E-01
   112 Broy./Diag. 0.10E-02    1.5     0.13837163     -5422.5664695004  1.31E+00
   113 Broy./Diag. 0.10E-02    1.5     0.05039292     -5421.9560252884  6.10E-01
   114 Broy./Diag. 0.10E-02    1.6     0.05604073     -5419.1246208611  2.83E+00
   115 Broy./Diag. 0.10E-02    1.6     0.03714396     -5420.6976763792 -1.57E+00
   116 Broy./Diag. 0.10E-02    1.4     0.07050144     -5421.0018118419 -3.04E-01
   117 Broy./Diag. 0.10E-02    1.4     0.02500609     -5419.9218561222  1.08E+00
   118 Broy./Diag. 0.10E-02    1.4     0.02004090     -5418.4685007031  1.45E+00
   119 Broy./Diag. 0.10E-02    1.4     0.05427179     -5422.5629643825 -4.09E+00
   120 Broy./Diag. 0.10E-02    1.4     0.03613369     -5421.9472016336  6.16E-01
   121 Broy./Diag. 0.10E-02    1.4     0.04819013     -5422.0008599920 -5.37E-02
   122 Broy./Diag. 0.10E-02    1.4     0.06647485     -5420.8402814994  1.16E+00
   123 Broy./Diag. 0.10E-02    1.4     0.03045473     -5418.5729381607  2.27E+00
   124 Broy./Diag. 0.10E-02    1.4     0.07463617     -5420.0096906842 -1.44E+00
   125 Broy./Diag. 0.10E-02    1.4     0.06664653     -5423.6768133554 -3.67E+00
   126 Broy./Diag. 0.10E-02    1.4     0.04812730     -5423.4167322573  2.60E-01
   127 Broy./Diag. 0.10E-02    1.4     0.02051982     -5420.8025311200  2.61E+00
   128 Broy./Diag. 0.10E-02    1.5     0.09924208     -5420.5914648873  2.11E-01
   129 Broy./Diag. 0.10E-02    1.5     0.09551877     -5421.9774051874 -1.39E+00
   130 Broy./Diag. 0.10E-02    1.5     0.06860315     -5423.1736542737 -1.20E+00
   131 Broy./Diag. 0.10E-02    1.5     0.06147511     -5421.5152322722  1.66E+00
   132 Broy./Diag. 0.10E-02    1.4     0.04472268     -5420.7425572610  7.73E-01
   133 Broy./Diag. 0.10E-02    1.4     0.01871026     -5418.5320549747  2.21E+00
   134 Broy./Diag. 0.10E-02    1.4     0.14523118     -5418.7449249768 -2.13E-01
   135 Broy./Diag. 0.10E-02    1.4     0.11117068     -5425.7010981799 -6.96E+00
   136 Broy./Diag. 0.10E-02    1.4     0.09042367     -5424.7344897175  9.67E-01
   137 Broy./Diag. 0.10E-02    1.4     0.01860926     -5423.1292474829  1.61E+00
   138 Broy./Diag. 0.10E-02    1.5     0.08454630     -5422.1013411133  1.03E+00
   139 Broy./Diag. 0.10E-02    1.5     0.08612241     -5418.7189762861  3.38E+00
   140 Broy./Diag. 0.10E-02    1.4     0.04408983     -5424.8970877827 -6.18E+00
   141 Broy./Diag. 0.10E-02    1.6     0.01792286     -5423.9377302088  9.59E-01
   142 Broy./Diag. 0.10E-02    1.6     0.02749166     -5423.0792378637  8.58E-01
   143 Broy./Diag. 0.10E-02    1.6     0.12740905     -5423.7248680905 -6.46E-01
   144 Broy./Diag. 0.10E-02    1.4     0.13119464     -5421.8580897292  1.87E+00
   145 Broy./Diag. 0.10E-02    1.4     0.10329200     -5427.4017756480 -5.54E+00
   146 Broy./Diag. 0.10E-02    1.4     0.10614161     -5425.2392870295  2.16E+00
   147 Broy./Diag. 0.10E-02    1.4     0.06936891     -5428.0152277095 -2.78E+00
   148 Broy./Diag. 0.10E-02    1.5     0.07109911     -5428.5086948424 -4.93E-01
   149 Broy./Diag. 0.10E-02    1.5     0.17475701     -5427.7846792859  7.24E-01
   150 Broy./Diag. 0.10E-02    1.5     0.10347715     -5425.5963487929  2.19E+00
   151 Broy./Diag. 0.10E-02    1.4     0.05086016     -5426.6041421591 -1.01E+00
   152 Broy./Diag. 0.10E-02    1.4     0.03719006     -5421.2223615714  5.38E+00
   153 Broy./Diag. 0.10E-02    1.4     0.01397185     -5420.2123021078  1.01E+00
   154 Broy./Diag. 0.10E-02    1.5     0.03382449     -5422.0576239281 -1.85E+00
   155 Broy./Diag. 0.10E-02    1.4     0.01514453     -5419.4286719978  2.63E+00
   156 Broy./Diag. 0.10E-02    1.5     0.00370543     -5420.8911897329 -1.46E+00
   157 Broy./Diag. 0.10E-02    1.4     0.01092555     -5421.2268250330 -3.36E-01
   158 Broy./Diag. 0.10E-02    1.5     0.10692024     -5419.9980396590  1.23E+00
   159 Broy./Diag. 0.10E-02    1.4     0.09720549     -5423.1952624096 -3.20E+00
   160 Broy./Diag. 0.10E-02    1.4     0.02008553     -5419.4921035288  3.70E+00
   161 Broy./Diag. 0.10E-02    1.4     0.01757707     -5418.2532561906  1.24E+00
   162 Broy./Diag. 0.10E-02    1.4     0.03941078     -5417.0050023027  1.25E+00
   163 Broy./Diag. 0.10E-02    1.4     0.03501654     -5416.9609416812  4.41E-02
   164 Broy./Diag. 0.10E-02    1.4     0.01927256     -5415.1107519391  1.85E+00
   165 Broy./Diag. 0.10E-02    1.4     0.05297827     -5414.2969763022  8.14E-01
   166 Broy./Diag. 0.10E-02    1.4     0.01113587     -5415.3121131022 -1.02E+00
   167 Broy./Diag. 0.10E-02    1.4     0.01927185     -5415.5688956854 -2.57E-01
   168 Broy./Diag. 0.10E-02    1.5     0.05495874     -5414.1687173989  1.40E+00
   169 Broy./Diag. 0.10E-02    1.6     0.14223706     -5411.8946830993  2.27E+00
   170 Broy./Diag. 0.10E-02    1.6     0.07937182     -5417.1600440961 -5.27E+00
   171 Broy./Diag. 0.10E-02    1.4     0.05435773     -5415.4400795047  1.72E+00
   172 Broy./Diag. 0.10E-02    1.4     0.05700110     -5414.9916264929  4.48E-01
   173 Broy./Diag. 0.10E-02    1.4     0.05036450     -5413.8603423021  1.13E+00
   174 Broy./Diag. 0.10E-02    1.4     0.03646437     -5413.7110674823  1.49E-01
   175 Broy./Diag. 0.10E-02    1.4     0.03265368     -5414.3248395137 -6.14E-01
   176 Broy./Diag. 0.10E-02    1.4     0.04552294     -5412.9466557952  1.38E+00
   177 Broy./Diag. 0.10E-02    1.4     0.08584800     -5413.1997877360 -2.53E-01
   178 Broy./Diag. 0.10E-02    1.4     0.01470995     -5410.6772120906  2.52E+00
   179 Broy./Diag. 0.10E-02    1.5     0.07146286     -5410.5366596755  1.41E-01
   180 Broy./Diag. 0.10E-02    1.4     0.01420917     -5415.9304710948 -5.39E+00
   181 Broy./Diag. 0.10E-02    1.4     0.04342936     -5419.3671725682 -3.44E+00
   182 Broy./Diag. 0.10E-02    1.4     0.02330765     -5420.5451347331 -1.18E+00
   183 Broy./Diag. 0.10E-02    1.4     0.02733477     -5421.1143205350 -5.69E-01
   184 Broy./Diag. 0.10E-02    1.4     0.01935665     -5420.8411166688  2.73E-01
   185 Broy./Diag. 0.10E-02    1.4     0.03550560     -5419.6164421796  1.22E+00
   186 Broy./Diag. 0.10E-02    1.4     0.01525348     -5416.6890949612  2.93E+00
   187 Broy./Diag. 0.10E-02    1.4     0.01661862     -5416.5656220331  1.23E-01
   188 Broy./Diag. 0.10E-02    1.4     0.05852067     -5418.5745842519 -2.01E+00
   189 Broy./Diag. 0.10E-02    1.4     0.05687528     -5422.3980863064 -3.82E+00
   190 Broy./Diag. 0.10E-02    1.5     0.05191499     -5422.0284003468  3.70E-01
   191 Broy./Diag. 0.10E-02    1.5     0.01764015     -5419.1573532891  2.87E+00
   192 Broy./Diag. 0.10E-02    1.4     0.01632985     -5421.4477646817 -2.29E+00
   193 Broy./Diag. 0.10E-02    1.4     0.04958867     -5421.8590362157 -4.11E-01
   194 Broy./Diag. 0.10E-02    1.4     0.03136665     -5420.7284633488  1.13E+00
   195 Broy./Diag. 0.10E-02    1.4     0.02214785     -5416.4516485121  4.28E+00
   196 Broy./Diag. 0.10E-02    1.5     0.04466714     -5413.7676766817  2.68E+00
   197 Broy./Diag. 0.10E-02    1.6     0.05958778     -5414.1687189950 -4.01E-01
   198 Broy./Diag. 0.10E-02    1.5     0.01901204     -5414.3810346144 -2.12E-01
   199 Broy./Diag. 0.10E-02    1.4     0.08919153     -5414.6417233040 -2.61E-01
   200 Broy./Diag. 0.10E-02    1.5     0.09785036     -5414.9092912572 -2.68E-01
   201 Broy./Diag. 0.10E-02    1.4     0.01061325     -5414.7683014736  1.41E-01
   202 Broy./Diag. 0.10E-02    1.4     0.00306964     -5414.2532163276  5.15E-01
   203 Broy./Diag. 0.10E-02    1.5     0.01830576     -5414.4607960145 -2.08E-01
   204 Broy./Diag. 0.10E-02    1.4     0.03743073     -5413.9580911351  5.03E-01
   205 Broy./Diag. 0.10E-02    1.4     0.02064960     -5414.2209927228 -2.63E-01
   206 Broy./Diag. 0.10E-02    1.4     0.10117416     -5415.0124327373 -7.91E-01
   207 Broy./Diag. 0.10E-02    1.4     0.10702838     -5416.4580310878 -1.45E+00
   208 Broy./Diag. 0.10E-02    1.4     0.06296513     -5415.1596034908  1.30E+00
