 DBCSR| CPU Multiplication driver                                           XSMM (U)
 DBCSR| Multrec recursion limit                                              512 (U)
 DBCSR| Multiplication stack size                                           1000 (D)
 DBCSR| Maximum elements for images                                    UNLIMITED (U)
 DBCSR| Multiplicative factor virtual images                                   1 (U)
 DBCSR| Use multiplication densification                                       T (D)
 DBCSR| Multiplication size stacks                                             3 (U)
 DBCSR| Use memory pool for CPU allocation                                     F (U)
 DBCSR| Number of 3D layers                                               SINGLE (U)
 DBCSR| Use MPI memory allocation                                              F (U)
 DBCSR| Use RMA algorithm                                                      F (U)
 DBCSR| Use Communication thread                                               T (U)
 DBCSR| Communication thread load                                             87 (D)
 DBCSR| MPI: My process id                                                     0
 DBCSR| MPI: Number of processes                                             128
 DBCSR| OMP: Current number of threads                                         1
 DBCSR| OMP: Max number of threads                                             1
 DBCSR| Split modifier for TAS multiplication algorithm                  1.0E+00 (U)


  **** **** ******  **  PROGRAM STARTED AT               2023-02-15 11:40:07.128
 ***** ** ***  *** **   PROGRAM STARTED ON                             nid004947
 **    ****   ******    PROGRAM STARTED BY                                cahart
 ***** **    ** ** **   PROGRAM PROCESS ID                                230169
  **** **  *******  **  PROGRAM STARTED IN /mnt/lustre/a2fs-work2/work/e05/e05/c
                                           ahart/postdoc/masters/ni/archer2/slab
                                           /optimise/magnetisation/scf_1e-4_temp
                                           -2000_mos-1000_alpha-0.08_beta-1.5_pe
                                           riodic-xyz/search/0.54_0.5

 CP2K| version string:                 CP2K version 2023.1 (Development Version)
 CP2K| source code revision number:                                  git:964cd58
 CP2K| cp2kflags: omp libint fftw3 libxc elpa parallel scalapack xsmm plumed2 mk
 CP2K|            l
 CP2K| is freely available from                            https://www.cp2k.org/
 CP2K| Program compiled at                          Mon 13 Feb 17:05:14 GMT 2023
 CP2K| Program compiled on                                                  ln01
 CP2K| Program compiled for                                              ARCHER2
 CP2K| Data directory path    /work/e05/e05/cahart/cp2k/cp2k-2023.1/cp2k-2023.1-
 CP2K| Input file name                                                  cp2k.inp

 GLOBAL| Force Environment number                                              1
 GLOBAL| Basis set file name                                        BASIS_MOLOPT
 GLOBAL| Potential file name                                      GTH_POTENTIALS
 GLOBAL| MM Potential file name                                     MM_POTENTIAL
 GLOBAL| Coordinate file name                                      __STD_INPUT__
 GLOBAL| Method name                                                        CP2K
 GLOBAL| Project name                                                    Ni_bulk
 GLOBAL| Run type                                                         ENERGY
 GLOBAL| FFT library                                                       FFTW3
 GLOBAL| Diagonalization library                                            ELPA
 GLOBAL| DGEMM library                                                      BLAS
 GLOBAL| Minimum number of eigenvectors for ELPA usage                        16
 GLOBAL| Orthonormality check for eigenvectors                          DISABLED
 GLOBAL| Matrix multiplication library                                 ScaLAPACK
 GLOBAL| All-to-all communication in single precision                          F
 GLOBAL| FFTs using library dependent lengths                                  F
 GLOBAL| Grid backend                                                       AUTO
 GLOBAL| Global print level                                               MEDIUM
 GLOBAL| MPI I/O enabled                                                       T
 GLOBAL| Total number of message passing processes                           128
 GLOBAL| Number of threads for this process                                    1
 GLOBAL| This output is from process                                           0
 GLOBAL| Stack size for threads created by OpenMP (OMP_STACKSIZE)        default
 GLOBAL| CPU model name                          AMD EPYC 7742 64-Core Processor
 GLOBAL| CPUID                                                              1002

 MEMORY| system memory details [Kb]
 MEMORY|                        rank 0           min           max       average
 MEMORY| MemTotal            263528088     263528088     263528088     263528088
 MEMORY| MemFree             239302620     239302620     239302620     239302620
 MEMORY| Buffers                 25516         25516         25516         25516
 MEMORY| Cached                 562172        562172        562172        562172
 MEMORY| Slab                  1482504       1482504       1482504       1482504
 MEMORY| SReclaimable           105044        105044        105044        105044
 MEMORY| MemLikelyFree       239995352     239995352     239995352     239995352


 *** Fundamental physical constants (SI units) ***

 *** Literature: B. J. Mohr and B. N. Taylor,
 ***             CODATA recommended values of the fundamental physical
 ***             constants: 2006, Web Version 5.1
 ***             http://physics.nist.gov/constants

 Speed of light in vacuum [m/s]                             2.99792458000000E+08
 Magnetic constant or permeability of vacuum [N/A**2]       1.25663706143592E-06
 Electric constant or permittivity of vacuum [F/m]          8.85418781762039E-12
 Planck constant (h) [J*s]                                  6.62606896000000E-34
 Planck constant (h-bar) [J*s]                              1.05457162825177E-34
 Elementary charge [C]                                      1.60217648700000E-19
 Electron mass [kg]                                         9.10938215000000E-31
 Electron g factor [ ]                                     -2.00231930436220E+00
 Proton mass [kg]                                           1.67262163700000E-27
 Fine-structure constant                                    7.29735253760000E-03
 Rydberg constant [1/m]                                     1.09737315685270E+07
 Avogadro constant [1/mol]                                  6.02214179000000E+23
 Boltzmann constant [J/K]                                   1.38065040000000E-23
 Atomic mass unit [kg]                                      1.66053878200000E-27
 Bohr radius [m]                                            5.29177208590000E-11

 *** Conversion factors ***

 [u] -> [a.u.]                                              1.82288848426455E+03
 [Angstrom] -> [Bohr] = [a.u.]                              1.88972613288564E+00
 [a.u.] = [Bohr] -> [Angstrom]                              5.29177208590000E-01
 [a.u.] -> [s]                                              2.41888432650478E-17
 [a.u.] -> [fs]                                             2.41888432650478E-02
 [a.u.] -> [J]                                              4.35974393937059E-18
 [a.u.] -> [N]                                              8.23872205491840E-08
 [a.u.] -> [K]                                              3.15774647902944E+05
 [a.u.] -> [kJ/mol]                                         2.62549961709828E+03
 [a.u.] -> [kcal/mol]                                       6.27509468713739E+02
 [a.u.] -> [Pa]                                             2.94210107994716E+13
 [a.u.] -> [bar]                                            2.94210107994716E+08
 [a.u.] -> [atm]                                            2.90362800883016E+08
 [a.u.] -> [eV]                                             2.72113838565563E+01
 [a.u.] -> [Hz]                                             6.57968392072181E+15
 [a.u.] -> [1/cm] (wave numbers)                            2.19474631370540E+05
 [a.u./Bohr**2] -> [1/cm]                                   5.14048714338585E+03
 

 CELL_TOP| Volume [angstrom^3]:                                       983.249569
 CELL_TOP| Vector a [angstrom     7.012     0.000     0.000   |a| =     7.011596
 CELL_TOP| Vector b [angstrom     0.000     7.012     0.000   |b| =     7.011596
 CELL_TOP| Vector c [angstrom     0.000     0.000    20.000   |c| =    20.000000
 CELL_TOP| Angle (b,c), alpha [degree]:                                90.000000
 CELL_TOP| Angle (a,c), beta  [degree]:                                90.000000
 CELL_TOP| Angle (a,b), gamma [degree]:                                90.000000
 CELL_TOP| Numerically orthorhombic:                                         YES
 CELL_TOP| Periodicity                                                       XYZ

 GENERATE|  Preliminary Number of Bonds generated:                             0
 GENERATE|  Achieved consistency in connectivity generation.

 CELL| Volume [angstrom^3]:                                           983.249569
 CELL| Vector a [angstrom]:       7.012     0.000     0.000   |a| =     7.011596
 CELL| Vector b [angstrom]:       0.000     7.012     0.000   |b| =     7.011596
 CELL| Vector c [angstrom]:       0.000     0.000    20.000   |c| =    20.000000
 CELL| Angle (b,c), alpha [degree]:                                    90.000000
 CELL| Angle (a,c), beta  [degree]:                                    90.000000
 CELL| Angle (a,b), gamma [degree]:                                    90.000000
 CELL| Numerically orthorhombic:                                             YES
 CELL| Periodicity                                                           XYZ

 CELL_REF| Volume [angstrom^3]:                                       983.249569
 CELL_REF| Vector a [angstrom     7.012     0.000     0.000   |a| =     7.011596
 CELL_REF| Vector b [angstrom     0.000     7.012     0.000   |b| =     7.011596
 CELL_REF| Vector c [angstrom     0.000     0.000    20.000   |c| =    20.000000
 CELL_REF| Angle (b,c), alpha [degree]:                                90.000000
 CELL_REF| Angle (a,c), beta  [degree]:                                90.000000
 CELL_REF| Angle (a,b), gamma [degree]:                                90.000000
 CELL_REF| Numerically orthorhombic:                                         YES
 CELL_REF| Periodicity                                                       XYZ

 *** WARNING in cryssym.F:165 :: Symmetry library SPGLIB not available ***


 *******************************************************************************
                                    Kpoints
 *******************************************************************************
 BRILLOUIN| K-point scheme                                        Monkhorst-Pack
 BRILLOUIN| K-Point grid                                             4    4    1
 BRILLOUIN| Accuracy in Symmetry determination                      0.100000E-05
 BRILLOUIN| K-Point point group symmetrization                               OFF
 BRILLOUIN| Wavefunction type                                            COMPLEX
 BRILLOUIN| List of Kpoints [2 Pi/Bohr]                                        8
 BRILLOUIN| Number           Weight            X              Y              Z
 BRILLOUIN|     1           0.12500       -0.37500       -0.37500        0.00000
 BRILLOUIN|     2           0.12500       -0.37500       -0.12500        0.00000
 BRILLOUIN|     3           0.12500       -0.37500        0.12500        0.00000
 BRILLOUIN|     4           0.12500       -0.37500        0.37500        0.00000
 BRILLOUIN|     5           0.12500       -0.12500       -0.37500        0.00000
 BRILLOUIN|     6           0.12500       -0.12500       -0.12500        0.00000
 BRILLOUIN|     7           0.12500       -0.12500        0.12500        0.00000
 BRILLOUIN|     8           0.12500       -0.12500        0.37500        0.00000
 *******************************************************************************

 *******************************************************************************
 *******************************************************************************
 **                                                                           **
 **     #####                         ##              ##                      **
 **    ##   ##            ##          ##              ##                      **
 **   ##     ##                       ##            ######                    **
 **   ##     ##  ##   ##  ##   #####  ##  ##   ####   ##    #####    #####    **
 **   ##     ##  ##   ##  ##  ##      ## ##   ##      ##   ##   ##  ##   ##   **
 **   ##  ## ##  ##   ##  ##  ##      ####     ###    ##   ######   ######    **
 **    ##  ###   ##   ##  ##  ##      ## ##      ##   ##   ##       ##        **
 **     #######   #####   ##   #####  ##  ##  ####    ##    #####   ##        **
 **           ##                                                    ##        **
 **                                                                           **
 **                                                ... make the atoms dance   **
 **                                                                           **
 **            Copyright (C) by CP2K developers group (2000-2023)             **
 **                      J. Chem. Phys. 152, 194103 (2020)                    **
 **                                                                           **
 *******************************************************************************

 *** WARNING in qs_environment.F:1456 :: Number of electrons will be ***
 *** overwritten by NELEC_ALPHA and NELEC_BETA, multiplicity will be ***
 *** ignored.                                                        ***

 Number of electrons should be                                               576
 Sum of NELEC_ALPHA and NELEC_BETA is                                    576.000

 *** WARNING in qs_environment.F:1488 :: NELEC_ALPHA is not an integer, ***
 *** many features will not be supported.                               ***


 *** WARNING in qs_environment.F:1500 :: NELEC_BETA is not an integer, ***
 *** many features will not be supported.                              ***


 *** WARNING in qs_environment.F:1532 :: More ADDED_MOs requested for beta ***
 *** spin than available.                                                  ***


 *** WARNING in qs_environment.F:1548 :: More added MOs requested than     ***
 *** available. The full set of unoccupied MOs will be used. Use           ***
 *** 'ADDED_MOS -1' to always use all available MOs and to get rid of this ***
 *** warning.                                                              ***


 DFT| Spin unrestricted (spin-polarized) Kohn-Sham calculation               UKS
 DFT| Multiplicity                                                             1
 DFT| Number of spin states                                                    2
 DFT| Charge                                                                   0
 DFT| Self-interaction correction (SIC)                                       NO
 DFT| Cutoffs: density                                              1.000000E-10
 DFT|          gradient                                             1.000000E-10
 DFT|          tau                                                  1.000000E-10
 DFT|          cutoff_smoothing_range                               0.000000E+00
 DFT| XC density smoothing                                                  NONE
 DFT| XC derivatives                                                          PW

 FUNCTIONAL| PBE:
 FUNCTIONAL| J.P.Perdew, K.Burke, M.Ernzerhof, Phys. Rev. Letter, vol. 77, n 18,
 FUNCTIONAL|  pp. 3865-3868, (1996){spin polarized}                             

 vdW POTENTIAL|                                                   Pair Potential
 vdW POTENTIAL|          DFT-D3 (Version 3.1)
 vdW POTENTIAL|          Potential Form: S. Grimme et al, JCP 132: 154104 (2010)
 vdW POTENTIAL|          Zero Damping
 vdW POTENTIAL|          Cutoff Radius [Bohr]:                             20.00
 vdW POTENTIAL|          s6 Scaling Factor:                               1.0000
 vdW POTENTIAL|          sr6 Scaling Factor:                              1.2170
 vdW POTENTIAL|          s8 Scaling Factor:                               0.7220
 vdW POTENTIAL|          Cutoff for CN calculation:                   0.1000E-05

 QS| Method:                                                                 GPW
 QS| Density plane wave grid type                        NON-SPHERICAL FULLSPACE
 QS| Number of grid levels:                                                    5
 QS| Density cutoff [a.u.]:                                                300.0
 QS| Multi grid cutoff [a.u.]: 1) grid level                               300.0
 QS|                           2) grid level                               100.0
 QS|                           3) grid level                                33.3
 QS|                           4) grid level                                11.1
 QS|                           5) grid level                                 3.7
 QS| Grid level progression factor:                                          3.0
 QS| Relative density cutoff [a.u.]:                                        30.0
 QS| Interaction thresholds: eps_pgf_orb:                                1.0E-06
 QS|                         eps_filter_matrix:                          0.0E+00
 QS|                         eps_core_charge:                            1.0E-14
 QS|                         eps_rho_gspace:                             1.0E-12
 QS|                         eps_rho_rspace:                             1.0E-12
 QS|                         eps_gvg_rspace:                             1.0E-06
 QS|                         eps_ppl:                                    1.0E-02
 QS|                         eps_ppnl:                                   1.0E-08


 ATOMIC KIND INFORMATION

  1. Atomic kind: Ni_i                                  Number of atoms:      16

     Orbital Basis Set                                        DZVP-MOLOPT-SR-GTH

       Number of orbital shell sets:                                           1
       Number of orbital shells:                                               8
       Number of primitive Cartesian functions:                                6
       Number of Cartesian basis functions:                                   31
       Number of spherical basis functions:                                   26
       Norm type:                                                              2

       Normalised Cartesian orbitals:

                        Set   Shell   Orbital            Exponent    Coefficient

                          1       1    2s               10.077428      -0.684558
                                                         5.847736      -0.844524
                                                         2.494033       1.088856
                                                         0.988355       0.395503
                                                         0.344978       0.010224
                                                         0.099466      -0.003250

                          1       2    3s               10.077428       0.096747
                                                         5.847736       0.162504
                                                         2.494033      -0.297192
                                                         0.988355      -0.319752
                                                         0.344978       0.088318
                                                         0.099466       0.118587

                          1       3    4s               10.077428       0.036437
                                                         5.847736      -0.381480
                                                         2.494033       0.003759
                                                         0.988355      -1.048256
                                                         0.344978       0.855825
                                                         0.099466      -0.176350

                          1       4    3px              10.077428      -3.133913
                                                         5.847736       3.027656
                                                         2.494033       2.353227
                                                         0.988355       0.554184
                                                         0.344978       0.019462
                                                         0.099466      -0.000291
                          1       4    3py              10.077428      -3.133913
                                                         5.847736       3.027656
                                                         2.494033       2.353227
                                                         0.988355       0.554184
                                                         0.344978       0.019462
                                                         0.099466      -0.000291
                          1       4    3pz              10.077428      -3.133913
                                                         5.847736       3.027656
                                                         2.494033       2.353227
                                                         0.988355       0.554184
                                                         0.344978       0.019462
                                                         0.099466      -0.000291

                          1       5    4px              10.077428      -0.112729
                                                         5.847736      -0.114008
                                                         2.494033      -0.347303
                                                         0.988355      -0.110323
                                                         0.344978       0.154096
                                                         0.099466       0.058386
                          1       5    4py              10.077428      -0.112729
                                                         5.847736      -0.114008
                                                         2.494033      -0.347303
                                                         0.988355      -0.110323
                                                         0.344978       0.154096
                                                         0.099466       0.058386
                          1       5    4pz              10.077428      -0.112729
                                                         5.847736      -0.114008
                                                         2.494033      -0.347303
                                                         0.988355      -0.110323
                                                         0.344978       0.154096
                                                         0.099466       0.058386

                          1       6    4dx2             10.077428       8.232726
                                                         5.847736       9.105758
                                                         2.494033       2.849835
                                                         0.988355       0.554319
                                                         0.344978       0.067245
                                                         0.099466       0.001940
                          1       6    4dxy             10.077428      14.259500
                                                         5.847736      15.771636
                                                         2.494033       4.936060
                                                         0.988355       0.960109
                                                         0.344978       0.116472
                                                         0.099466       0.003360
                          1       6    4dxz             10.077428      14.259500
                                                         5.847736      15.771636
                                                         2.494033       4.936060
                                                         0.988355       0.960109
                                                         0.344978       0.116472
                                                         0.099466       0.003360
                          1       6    4dy2             10.077428       8.232726
                                                         5.847736       9.105758
                                                         2.494033       2.849835
                                                         0.988355       0.554319
                                                         0.344978       0.067245
                                                         0.099466       0.001940
                          1       6    4dyz             10.077428      14.259500
                                                         5.847736      15.771636
                                                         2.494033       4.936060
                                                         0.988355       0.960109
                                                         0.344978       0.116472
                                                         0.099466       0.003360
                          1       6    4dz2             10.077428       8.232726
                                                         5.847736       9.105758
                                                         2.494033       2.849835
                                                         0.988355       0.554319
                                                         0.344978       0.067245
                                                         0.099466       0.001940

                          1       7    5dx2             10.077428      -2.715373
                                                         5.847736      -4.020640
                                                         2.494033      -1.397569
                                                         0.988355      -0.076143
                                                         0.344978       0.033435
                                                         0.099466       0.026032
                          1       7    5dxy             10.077428      -4.703164
                                                         5.847736      -6.963952
                                                         2.494033      -2.420661
                                                         0.988355      -0.131883
                                                         0.344978       0.057911
                                                         0.099466       0.045088
                          1       7    5dxz             10.077428      -4.703164
                                                         5.847736      -6.963952
                                                         2.494033      -2.420661
                                                         0.988355      -0.131883
                                                         0.344978       0.057911
                                                         0.099466       0.045088
                          1       7    5dy2             10.077428      -2.715373
                                                         5.847736      -4.020640
                                                         2.494033      -1.397569
                                                         0.988355      -0.076143
                                                         0.344978       0.033435
                                                         0.099466       0.026032
                          1       7    5dyz             10.077428      -4.703164
                                                         5.847736      -6.963952
                                                         2.494033      -2.420661
                                                         0.988355      -0.131883
                                                         0.344978       0.057911
                                                         0.099466       0.045088
                          1       7    5dz2             10.077428      -2.715373
                                                         5.847736      -4.020640
                                                         2.494033      -1.397569
                                                         0.988355      -0.076143
                                                         0.344978       0.033435
                                                         0.099466       0.026032

                          1       8    5fx3             10.077428      -0.467694
                                                         5.847736       0.618100
                                                         2.494033       0.066069
                                                         0.988355       0.262898
                                                         0.344978       0.004720
                                                         0.099466       0.007748
                          1       8    5fx2y            10.077428      -1.045795
                                                         5.847736       1.382114
                                                         2.494033       0.147734
                                                         0.988355       0.587859
                                                         0.344978       0.010555
                                                         0.099466       0.017325
                          1       8    5fx2z            10.077428      -1.045795
                                                         5.847736       1.382114
                                                         2.494033       0.147734
                                                         0.988355       0.587859
                                                         0.344978       0.010555
                                                         0.099466       0.017325
                          1       8    5fxy2            10.077428      -1.045795
                                                         5.847736       1.382114
                                                         2.494033       0.147734
                                                         0.988355       0.587859
                                                         0.344978       0.010555
                                                         0.099466       0.017325
                          1       8    5fxyz            10.077428      -1.811371
                                                         5.847736       2.393892
                                                         2.494033       0.255883
                                                         0.988355       1.018201
                                                         0.344978       0.018282
                                                         0.099466       0.030008
                          1       8    5fxz2            10.077428      -1.045795
                                                         5.847736       1.382114
                                                         2.494033       0.147734
                                                         0.988355       0.587859
                                                         0.344978       0.010555
                                                         0.099466       0.017325
                          1       8    5fy3             10.077428      -0.467694
                                                         5.847736       0.618100
                                                         2.494033       0.066069
                                                         0.988355       0.262898
                                                         0.344978       0.004720
                                                         0.099466       0.007748
                          1       8    5fy2z            10.077428      -1.045795
                                                         5.847736       1.382114
                                                         2.494033       0.147734
                                                         0.988355       0.587859
                                                         0.344978       0.010555
                                                         0.099466       0.017325
                          1       8    5fyz2            10.077428      -1.045795
                                                         5.847736       1.382114
                                                         2.494033       0.147734
                                                         0.988355       0.587859
                                                         0.344978       0.010555
                                                         0.099466       0.017325
                          1       8    5fz3             10.077428      -0.467694
                                                         5.847736       0.618100
                                                         2.494033       0.066069
                                                         0.988355       0.262898
                                                         0.344978       0.004720
                                                         0.099466       0.007748

       Atomic covalent radius [Angstrom]:                                  1.150

       Atomic van der Waals radius [Angstrom]:                             1.630

     GTH Potential information for                                   GTH-PBE-q18

       Description:                       Goedecker-Teter-Hutter pseudopotential
                                           Goedecker et al., PRB 54, 1703 (1996)
                                          Hartwigsen et al., PRB 58, 3641 (1998)
                                                      Krack, TCA 114, 145 (2005)

       Gaussian exponent of the core charge distribution:               4.081633
       Electronic configuration (s p d ...):                           4   6   8

       Parameters of the local part of the GTH pseudopotential:

                          rloc        C1          C2          C3          C4
                        0.350000    2.102166    0.648484

       Parameters of the non-local part of the GTH pseudopotential:

                   l      r(l)      h(i,j,l)

                   0    0.261295    0.622658    9.970227
                                    9.970227  -12.871507
                   1    0.224253  -11.142708   12.429566
                                   12.429566  -14.706861
                   2    0.215348  -12.628146

  2. Atomic kind: Ni_b                                  Number of atoms:      16

     Orbital Basis Set                                        DZVP-MOLOPT-SR-GTH

       Number of orbital shell sets:                                           1
       Number of orbital shells:                                               8
       Number of primitive Cartesian functions:                                6
       Number of Cartesian basis functions:                                   31
       Number of spherical basis functions:                                   26
       Norm type:                                                              2

       Normalised Cartesian orbitals:

                        Set   Shell   Orbital            Exponent    Coefficient

                          1       1    2s               10.077428      -0.684558
                                                         5.847736      -0.844524
                                                         2.494033       1.088856
                                                         0.988355       0.395503
                                                         0.344978       0.010224
                                                         0.099466      -0.003250

                          1       2    3s               10.077428       0.096747
                                                         5.847736       0.162504
                                                         2.494033      -0.297192
                                                         0.988355      -0.319752
                                                         0.344978       0.088318
                                                         0.099466       0.118587

                          1       3    4s               10.077428       0.036437
                                                         5.847736      -0.381480
                                                         2.494033       0.003759
                                                         0.988355      -1.048256
                                                         0.344978       0.855825
                                                         0.099466      -0.176350

                          1       4    3px              10.077428      -3.133913
                                                         5.847736       3.027656
                                                         2.494033       2.353227
                                                         0.988355       0.554184
                                                         0.344978       0.019462
                                                         0.099466      -0.000291
                          1       4    3py              10.077428      -3.133913
                                                         5.847736       3.027656
                                                         2.494033       2.353227
                                                         0.988355       0.554184
                                                         0.344978       0.019462
                                                         0.099466      -0.000291
                          1       4    3pz              10.077428      -3.133913
                                                         5.847736       3.027656
                                                         2.494033       2.353227
                                                         0.988355       0.554184
                                                         0.344978       0.019462
                                                         0.099466      -0.000291

                          1       5    4px              10.077428      -0.112729
                                                         5.847736      -0.114008
                                                         2.494033      -0.347303
                                                         0.988355      -0.110323
                                                         0.344978       0.154096
                                                         0.099466       0.058386
                          1       5    4py              10.077428      -0.112729
                                                         5.847736      -0.114008
                                                         2.494033      -0.347303
                                                         0.988355      -0.110323
                                                         0.344978       0.154096
                                                         0.099466       0.058386
                          1       5    4pz              10.077428      -0.112729
                                                         5.847736      -0.114008
                                                         2.494033      -0.347303
                                                         0.988355      -0.110323
                                                         0.344978       0.154096
                                                         0.099466       0.058386

                          1       6    4dx2             10.077428       8.232726
                                                         5.847736       9.105758
                                                         2.494033       2.849835
                                                         0.988355       0.554319
                                                         0.344978       0.067245
                                                         0.099466       0.001940
                          1       6    4dxy             10.077428      14.259500
                                                         5.847736      15.771636
                                                         2.494033       4.936060
                                                         0.988355       0.960109
                                                         0.344978       0.116472
                                                         0.099466       0.003360
                          1       6    4dxz             10.077428      14.259500
                                                         5.847736      15.771636
                                                         2.494033       4.936060
                                                         0.988355       0.960109
                                                         0.344978       0.116472
                                                         0.099466       0.003360
                          1       6    4dy2             10.077428       8.232726
                                                         5.847736       9.105758
                                                         2.494033       2.849835
                                                         0.988355       0.554319
                                                         0.344978       0.067245
                                                         0.099466       0.001940
                          1       6    4dyz             10.077428      14.259500
                                                         5.847736      15.771636
                                                         2.494033       4.936060
                                                         0.988355       0.960109
                                                         0.344978       0.116472
                                                         0.099466       0.003360
                          1       6    4dz2             10.077428       8.232726
                                                         5.847736       9.105758
                                                         2.494033       2.849835
                                                         0.988355       0.554319
                                                         0.344978       0.067245
                                                         0.099466       0.001940

                          1       7    5dx2             10.077428      -2.715373
                                                         5.847736      -4.020640
                                                         2.494033      -1.397569
                                                         0.988355      -0.076143
                                                         0.344978       0.033435
                                                         0.099466       0.026032
                          1       7    5dxy             10.077428      -4.703164
                                                         5.847736      -6.963952
                                                         2.494033      -2.420661
                                                         0.988355      -0.131883
                                                         0.344978       0.057911
                                                         0.099466       0.045088
                          1       7    5dxz             10.077428      -4.703164
                                                         5.847736      -6.963952
                                                         2.494033      -2.420661
                                                         0.988355      -0.131883
                                                         0.344978       0.057911
                                                         0.099466       0.045088
                          1       7    5dy2             10.077428      -2.715373
                                                         5.847736      -4.020640
                                                         2.494033      -1.397569
                                                         0.988355      -0.076143
                                                         0.344978       0.033435
                                                         0.099466       0.026032
                          1       7    5dyz             10.077428      -4.703164
                                                         5.847736      -6.963952
                                                         2.494033      -2.420661
                                                         0.988355      -0.131883
                                                         0.344978       0.057911
                                                         0.099466       0.045088
                          1       7    5dz2             10.077428      -2.715373
                                                         5.847736      -4.020640
                                                         2.494033      -1.397569
                                                         0.988355      -0.076143
                                                         0.344978       0.033435
                                                         0.099466       0.026032

                          1       8    5fx3             10.077428      -0.467694
                                                         5.847736       0.618100
                                                         2.494033       0.066069
                                                         0.988355       0.262898
                                                         0.344978       0.004720
                                                         0.099466       0.007748
                          1       8    5fx2y            10.077428      -1.045795
                                                         5.847736       1.382114
                                                         2.494033       0.147734
                                                         0.988355       0.587859
                                                         0.344978       0.010555
                                                         0.099466       0.017325
                          1       8    5fx2z            10.077428      -1.045795
                                                         5.847736       1.382114
                                                         2.494033       0.147734
                                                         0.988355       0.587859
                                                         0.344978       0.010555
                                                         0.099466       0.017325
                          1       8    5fxy2            10.077428      -1.045795
                                                         5.847736       1.382114
                                                         2.494033       0.147734
                                                         0.988355       0.587859
                                                         0.344978       0.010555
                                                         0.099466       0.017325
                          1       8    5fxyz            10.077428      -1.811371
                                                         5.847736       2.393892
                                                         2.494033       0.255883
                                                         0.988355       1.018201
                                                         0.344978       0.018282
                                                         0.099466       0.030008
                          1       8    5fxz2            10.077428      -1.045795
                                                         5.847736       1.382114
                                                         2.494033       0.147734
                                                         0.988355       0.587859
                                                         0.344978       0.010555
                                                         0.099466       0.017325
                          1       8    5fy3             10.077428      -0.467694
                                                         5.847736       0.618100
                                                         2.494033       0.066069
                                                         0.988355       0.262898
                                                         0.344978       0.004720
                                                         0.099466       0.007748
                          1       8    5fy2z            10.077428      -1.045795
                                                         5.847736       1.382114
                                                         2.494033       0.147734
                                                         0.988355       0.587859
                                                         0.344978       0.010555
                                                         0.099466       0.017325
                          1       8    5fyz2            10.077428      -1.045795
                                                         5.847736       1.382114
                                                         2.494033       0.147734
                                                         0.988355       0.587859
                                                         0.344978       0.010555
                                                         0.099466       0.017325
                          1       8    5fz3             10.077428      -0.467694
                                                         5.847736       0.618100
                                                         2.494033       0.066069
                                                         0.988355       0.262898
                                                         0.344978       0.004720
                                                         0.099466       0.007748

       Atomic covalent radius [Angstrom]:                                  1.150

       Atomic van der Waals radius [Angstrom]:                             1.630

     GTH Potential information for                                   GTH-PBE-q18

       Description:                       Goedecker-Teter-Hutter pseudopotential
                                           Goedecker et al., PRB 54, 1703 (1996)
                                          Hartwigsen et al., PRB 58, 3641 (1998)
                                                      Krack, TCA 114, 145 (2005)

       Gaussian exponent of the core charge distribution:               4.081633
       Electronic configuration (s p d ...):                           4   6   8

       Parameters of the local part of the GTH pseudopotential:

                          rloc        C1          C2          C3          C4
                        0.350000    2.102166    0.648484

       Parameters of the non-local part of the GTH pseudopotential:

                   l      r(l)      h(i,j,l)

                   0    0.261295    0.622658    9.970227
                                    9.970227  -12.871507
                   1    0.224253  -11.142708   12.429566
                                   12.429566  -14.706861
                   2    0.215348  -12.628146


 MOLECULE KIND INFORMATION


 All atoms are their own molecule, skipping detailed information


 TOTAL NUMBERS AND MAXIMUM NUMBERS

  Total number of            - Atomic kinds:                                   2
                             - Atoms:                                         32
                             - Shell sets:                                    32
                             - Shells:                                       256
                             - Primitive Cartesian functions:                192
                             - Cartesian basis functions:                    992
                             - Spherical basis functions:                    832

  Maximum angular momentum of- Orbital basis functions:                        3
                             - Local part of the GTH pseudopotential:          2
                             - Non-local part of the GTH pseudopotential:      3


 MODULE QUICKSTEP: ATOMIC COORDINATES IN ANGSTROM

   Atom Kind Element         X             Y             Z       Z(eff)     Mass
      1    1 Ni   28      0.876298      0.876298      7.370500  18.0000  58.6934
      2    1 Ni   28      0.876298      4.382298      7.370500  18.0000  58.6934
      3    1 Ni   28      2.629298      2.629298      7.370500  18.0000  58.6934
      4    1 Ni   28      2.629298      6.135298      7.370500  18.0000  58.6934
      5    1 Ni   28      4.382298      0.876298      7.370500  18.0000  58.6934
      6    1 Ni   28      4.382298      4.382298      7.370500  18.0000  58.6934
      7    1 Ni   28      6.135298      2.629298      7.370500  18.0000  58.6934
      8    1 Ni   28      6.135298      6.135298      7.370500  18.0000  58.6934
      9    2 Ni   28      0.876298      2.629298      9.123500  18.0000  58.6934
     10    2 Ni   28      0.876298      6.135298      9.123500  18.0000  58.6934
     11    2 Ni   28      2.629298      0.876298      9.123500  18.0000  58.6934
     12    2 Ni   28      2.629298      4.382298      9.123500  18.0000  58.6934
     13    2 Ni   28      4.382298      2.629298      9.123500  18.0000  58.6934
     14    2 Ni   28      4.382298      6.135298      9.123500  18.0000  58.6934
     15    2 Ni   28      6.135298      0.876298      9.123500  18.0000  58.6934
     16    2 Ni   28      6.135298      4.382298      9.123500  18.0000  58.6934
     17    2 Ni   28      0.876298      0.876298     10.876500  18.0000  58.6934
     18    2 Ni   28      0.876298      4.382298     10.876500  18.0000  58.6934
     19    2 Ni   28      2.629298      2.629298     10.876500  18.0000  58.6934
     20    2 Ni   28      2.629298      6.135298     10.876500  18.0000  58.6934
     21    2 Ni   28      4.382298      0.876298     10.876500  18.0000  58.6934
     22    2 Ni   28      4.382298      4.382298     10.876500  18.0000  58.6934
     23    2 Ni   28      6.135298      2.629298     10.876500  18.0000  58.6934
     24    2 Ni   28      6.135298      6.135298     10.876500  18.0000  58.6934
     25    1 Ni   28      0.876298      2.629298     12.629500  18.0000  58.6934
     26    1 Ni   28      0.876298      6.135298     12.629500  18.0000  58.6934
     27    1 Ni   28      2.629298      0.876298     12.629500  18.0000  58.6934
     28    1 Ni   28      2.629298      4.382298     12.629500  18.0000  58.6934
     29    1 Ni   28      4.382298      2.629298     12.629500  18.0000  58.6934
     30    1 Ni   28      4.382298      6.135298     12.629500  18.0000  58.6934
     31    1 Ni   28      6.135298      0.876298     12.629500  18.0000  58.6934
     32    1 Ni   28      6.135298      4.382298     12.629500  18.0000  58.6934



 SCF PARAMETERS         Density guess:                                    ATOMIC
                        --------------------------------------------------------
                        max_scf:                                             500
                        max_scf_history:                                       0
                        max_diis:                                              4
                        --------------------------------------------------------
                        eps_scf:                                        1.00E-04
                        eps_scf_history:                                0.00E+00
                        eps_diis:                                       1.00E-01
                        eps_eigval:                                     1.00E-05
                        --------------------------------------------------------
                        level_shift [a.u.]:                             0.000000
                        added MOs                                       535  552
                        --------------------------------------------------------
                        Mixing method:                            BROYDEN_MIXING
                                                charge density mixing in g-space
                        --------------------------------------------------------
                        Smear method:                                FERMI_DIRAC
                        Electronic temperature [K]:                       2000.0
                        Electronic temperature [a.u.]:                  6.33E-03
                        Accuracy threshold:                             1.00E-10
                        --------------------------------------------------------
                        No outer SCF

 PW_GRID| Information for grid number                                          1
 PW_GRID| Grid distributed over                                   128 processors
 PW_GRID| Real space group dimensions                                     8   16
 PW_GRID| the grid is blocked:                                               YES
 PW_GRID| Cutoff [a.u.]                                                    300.0
 PW_GRID| spherical cutoff:                                                   NO
 PW_GRID|   Bounds   1            -54      53                Points:         108
 PW_GRID|   Bounds   2            -54      53                Points:         108
 PW_GRID|   Bounds   3           -150     149                Points:         300
 PW_GRID| Volume element (a.u.^3)  0.1896E-02     Volume (a.u.^3)      6635.2971
 PW_GRID| Grid span                                                    FULLSPACE
 PW_GRID|   Distribution                         Average         Max         Min
 PW_GRID|   G-Vectors                            27337.5       28728       25272
 PW_GRID|   G-Rays                                 253.1         266         234
 PW_GRID|   Real Space Points                    27337.5       28728       25272

 PW_GRID| Information for grid number                                          2
 PW_GRID| Number of the reference grid                                         1
 PW_GRID| Grid distributed over                                   128 processors
 PW_GRID| Real space group dimensions                                     8   16
 PW_GRID| the grid is blocked:                                                NO
 PW_GRID| Cutoff [a.u.]                                                    100.0
 PW_GRID| spherical cutoff:                                                   NO
 PW_GRID|   Bounds   1            -30      29                Points:          60
 PW_GRID|   Bounds   2            -30      29                Points:          60
 PW_GRID|   Bounds   3            -90      89                Points:         180
 PW_GRID| Volume element (a.u.^3)  0.1024E-01     Volume (a.u.^3)      6635.2971
 PW_GRID| Grid span                                                    FULLSPACE
 PW_GRID|   Distribution                         Average         Max         Min
 PW_GRID|   G-Vectors                             5062.5       15960           0
 PW_GRID|   G-Rays                                  84.4         266           0
 PW_GRID|   Real Space Points                     5062.5        5760        3780

 PW_GRID| Information for grid number                                          3
 PW_GRID| Number of the reference grid                                         1
 PW_GRID| Grid distributed over                                   128 processors
 PW_GRID| Real space group dimensions                                     8   16
 PW_GRID| the grid is blocked:                                                NO
 PW_GRID| Cutoff [a.u.]                                                     33.3
 PW_GRID| spherical cutoff:                                                   NO
 PW_GRID|   Bounds   1            -18      17                Points:          36
 PW_GRID|   Bounds   2            -18      17                Points:          36
 PW_GRID|   Bounds   3            -50      49                Points:         100
 PW_GRID| Volume element (a.u.^3)  0.5120E-01     Volume (a.u.^3)      6635.2971
 PW_GRID| Grid span                                                    FULLSPACE
 PW_GRID|   Distribution                         Average         Max         Min
 PW_GRID|   G-Vectors                             1012.5        9576           0
 PW_GRID|   G-Rays                                  28.1         266           0
 PW_GRID|   Real Space Points                     1012.5        1500         800

 PW_GRID| Information for grid number                                          4
 PW_GRID| Number of the reference grid                                         1
 PW_GRID| Grid distributed over                                   128 processors
 PW_GRID| Real space group dimensions                                     8   16
 PW_GRID| the grid is blocked:                                                NO
 PW_GRID| Cutoff [a.u.]                                                     11.1
 PW_GRID| spherical cutoff:                                                   NO
 PW_GRID|   Bounds   1            -10       9                Points:          20
 PW_GRID|   Bounds   2            -10       9                Points:          20
 PW_GRID|   Bounds   3            -30      29                Points:          60
 PW_GRID| Volume element (a.u.^3)  0.2765         Volume (a.u.^3)      6635.2971
 PW_GRID| Grid span                                                    FULLSPACE
 PW_GRID|   Distribution                         Average         Max         Min
 PW_GRID|   G-Vectors                              187.5        3800           0
 PW_GRID|   G-Rays                                   9.4         190           0
 PW_GRID|   Real Space Points                      187.5         360         120

 PW_GRID| Information for grid number                                          5
 PW_GRID| Number of the reference grid                                         1
 PW_GRID| Grid distributed over                                   128 processors
 PW_GRID| Real space group dimensions                                     8   16
 PW_GRID| the grid is blocked:                                                NO
 PW_GRID| Cutoff [a.u.]                                                      3.7
 PW_GRID| spherical cutoff:                                                   NO
 PW_GRID|   Bounds   1             -6       5                Points:          12
 PW_GRID|   Bounds   2             -6       5                Points:          12
 PW_GRID|   Bounds   3            -18      17                Points:          36
 PW_GRID| Volume element (a.u.^3)   1.280         Volume (a.u.^3)      6635.2971
 PW_GRID| Grid span                                                    FULLSPACE
 PW_GRID|   Distribution                         Average         Max         Min
 PW_GRID|   G-Vectors                               40.5        1296           0
 PW_GRID|   G-Rays                                   3.4         108           0
 PW_GRID|   Real Space Points                       40.5          72           0

 POISSON| Solver                                                        PERIODIC
 POISSON| Periodicity                                                        XYZ

 RS_GRID| Information for grid number                                          1
 RS_GRID|   Bounds   1            -54      53                Points:         108
 RS_GRID|   Bounds   2            -54      53                Points:         108
 RS_GRID|   Bounds   3           -150     149                Points:         300
 RS_GRID| Real space distribution over                                  8 groups
 RS_GRID| Real space distribution along direction                              2
 RS_GRID| Border size                                                         28
 RS_GRID| Real space distribution over                                 16 groups
 RS_GRID| Real space distribution along direction                              3
 RS_GRID| Border size                                                         28
 RS_GRID|   Distribution                         Average         Max         Min
 RS_GRID|   Planes                                  69.5          70          69
 RS_GRID|   Distribution                         Average         Max         Min
 RS_GRID|   Planes                                  74.8          75          74

 RS_GRID| Information for grid number                                          2
 RS_GRID|   Bounds   1            -30      29                Points:          60
 RS_GRID|   Bounds   2            -30      29                Points:          60
 RS_GRID|   Bounds   3            -90      89                Points:         180
 RS_GRID| Real space fully replicated
 RS_GRID| Group size                                                           1

 RS_GRID| Information for grid number                                          3
 RS_GRID|   Bounds   1            -18      17                Points:          36
 RS_GRID|   Bounds   2            -18      17                Points:          36
 RS_GRID|   Bounds   3            -50      49                Points:         100
 RS_GRID| Real space fully replicated
 RS_GRID| Group size                                                           1

 RS_GRID| Information for grid number                                          4
 RS_GRID|   Bounds   1            -10       9                Points:          20
 RS_GRID|   Bounds   2            -10       9                Points:          20
 RS_GRID|   Bounds   3            -30      29                Points:          60
 RS_GRID| Real space fully replicated
 RS_GRID| Group size                                                           1

 RS_GRID| Information for grid number                                          5
 RS_GRID|   Bounds   1             -6       5                Points:          12
 RS_GRID|   Bounds   2             -6       5                Points:          12
 RS_GRID|   Bounds   3            -18      17                Points:          36
 RS_GRID| Real space fully replicated
 RS_GRID| Group size                                                           1

 Spin 1

 Number of electrons:                                                        296.320
 Number of occupied orbitals:                                                297
 Number of molecular orbitals:                                               832

 Spin 2

 Number of electrons:                                                        279.680
 Number of occupied orbitals:                                                280
 Number of molecular orbitals:                                               832

 Number of orbital functions:                                                832
 Number of independent orbital functions:                                    832

 Extrapolation method: initial_guess

 Atomic guess: The first density matrix is obtained in terms of atomic orbitals
               and electronic configurations assigned to each atomic kind

 Guess for atomic kind: Ni_i

 Electronic structure
    Total number of core electrons                                         10.00
    Total number of valence electrons                                      18.00
    Total number of electrons                                              28.00
    Multiplicity                                                         doublet
    Alpha Electrons
    S   [  1.00  1.00] 1.00  1.00
    P   [  3.00] 3.00
    D      4.25
    Beta Electrons
    S   [  1.00  1.00] 1.00  1.00
    P   [  3.00] 3.00
    D      3.75


 *******************************************************************************
                  Iteration          Convergence                     Energy [au]
 *******************************************************************************
                          1         1.51687                    -167.065012761055
                          2         14.9817                    -156.620431300845
                          3         2.25575                    -168.317311438693
                          4        0.189210                    -168.607926092750
                          5        0.708658E-01                -168.610773319290
                          6        0.122256E-01                -168.611238205502
                          7        0.598421E-02                -168.611272268995
                          8        0.528277E-02                -168.611272438110
                          9        0.104644E-02                -168.611275321653
                         10        0.260234E-02                -168.611274926630
                         11        0.975322E-03                -168.611275328217
                         12        0.161067E-03                -168.611275447773
                         13        0.147413E-03                -168.611275446839
                         14        0.115114E-03                -168.611275449434
                         15        0.167217E-03                -168.611275445436
                         16        0.255374E-04                -168.611275450531
                         17        0.418369E-04                -168.611275450414
                         18        0.393709E-04                -168.611275450477
                         19        0.239931E-04                -168.611275450542
                         20        0.173885E-04                -168.611275450557
                         21        0.851368E-05                -168.611275450578
                         22        0.849928E-05                -168.611275450580
                         23        0.544937E-05                -168.611275450584
                         24        0.540003E-05                -168.611275450586
                         25        0.613371E-05                -168.611275450584
                         26        0.311593E-06                -168.611275450588

 Energy components [Hartree]           Total Energy ::         -168.611275450588
                                        Band Energy ::          -26.568680144499
                                     Kinetic Energy ::           97.303659243130
                                   Potential Energy ::         -265.914934693718
                                      Virial (-V/T) ::            2.732835915546
                                        Core Energy ::         -299.566189183323
                                          XC Energy ::          -16.224592878785
                                     Coulomb Energy ::          147.179506611520
                       Total Pseudopotential Energy ::         -396.956189041778
                       Local Pseudopotential Energy ::         -362.645043136649
                    Nonlocal Pseudopotential Energy ::          -34.311145905129
                                        Confinement ::            0.863406153250

 Orbital energies  State     Spin  L     Occupation   Energy[a.u.]    Energy[eV]

                       1    alpha  0          1.000      -4.168335   -113.426177
                       2    alpha  0          1.000      -0.180730     -4.917906
                       1     beta  0          1.000      -4.145459   -112.803683
                       2     beta  0          1.000      -0.177117     -4.819606

                       1    alpha  1          3.000      -2.574525    -70.056390
                       1     beta  1          3.000      -2.552268    -69.450746

                       1    alpha  2          4.250      -0.323446     -8.801405
                       1     beta  2          3.750      -0.304537     -8.286881


 Total Electron Density at R=0:                                         0.030429

 Guess for atomic kind: Ni_b

 Electronic structure
    Total number of core electrons                                         10.00
    Total number of valence electrons                                      18.00
    Total number of electrons                                              28.00
    Multiplicity                                                         doublet
    Alpha Electrons
    S   [  1.00  1.00] 1.00  1.00
    P   [  3.00] 3.00
    D      4.27
    Beta Electrons
    S   [  1.00  1.00] 1.00  1.00
    P   [  3.00] 3.00
    D      3.73


 *******************************************************************************
                  Iteration          Convergence                     Energy [au]
 *******************************************************************************
                          1         1.51695                    -167.065430796822
                          2         15.0636                    -156.624285145329
                          3         2.27156                    -168.317666785722
                          4        0.192765                    -168.608269014491
                          5        0.730221E-01                -168.611137202131
                          6        0.129602E-01                -168.611625193804
                          7        0.542523E-02                -168.611666100546
                          8        0.488838E-02                -168.611666099294
                          9        0.937220E-03                -168.611668645517
                         10        0.249363E-02                -168.611668272011
                         11        0.100815E-02                -168.611668611797
                         12        0.165015E-03                -168.611668738630
                         13        0.168098E-03                -168.611668737601
                         14        0.128459E-03                -168.611668740837
                         15        0.176199E-03                -168.611668736511
                         16        0.406292E-04                -168.611668742279
                         17        0.558388E-04                -168.611668742230
                         18        0.401957E-04                -168.611668742338
                         19        0.241631E-04                -168.611668742405
                         20        0.107351E-04                -168.611668742443
                         21        0.729822E-05                -168.611668742445
                         22        0.669209E-05                -168.611668742448
                         23        0.608313E-05                -168.611668742448
                         24        0.437377E-05                -168.611668742452
                         25        0.341863E-05                -168.611668742452
                         26        0.761914E-06                -168.611668742453

 Energy components [Hartree]           Total Energy ::         -168.611668742453
                                        Band Energy ::          -26.568870891367
                                     Kinetic Energy ::           97.304193201706
                                   Potential Energy ::         -265.915861944159
                                      Virial (-V/T) ::            2.732830448457
                                        Core Energy ::         -299.566502251451
                                          XC Energy ::          -16.225043207261
                                     Coulomb Energy ::          147.179876716259
                       Total Pseudopotential Energy ::         -396.957036121858
                       Local Pseudopotential Energy ::         -362.645610615005
                    Nonlocal Pseudopotential Energy ::          -34.311425506853
                                        Confinement ::            0.863406687013

 Orbital energies  State     Spin  L     Occupation   Energy[a.u.]    Energy[eV]

                       1    alpha  0          1.000      -4.169208   -113.449931
                       2    alpha  0          1.000      -0.180871     -4.921738
                       1     beta  0          1.000      -4.144502   -112.777637
                       2     beta  0          1.000      -0.176969     -4.815570

                       1    alpha  1          3.000      -2.575374    -70.079503
                       1     beta  1          3.000      -2.551337    -69.425407

                       1    alpha  2          4.270      -0.324170     -8.821105
                       1     beta  2          3.730      -0.303749     -8.265422


 Total Electron Density at R=0:                                         0.030428

 Spin 1
 Re-scaling the density matrix to get the right number of electrons for spin 1
                  # Electrons              Trace(P)               Scaling factor
                        296.320             296.320                        1.000

 Spin 2
 Re-scaling the density matrix to get the right number of electrons for spin 2
                  # Electrons              Trace(P)               Scaling factor
                        279.680             279.680                        1.000


 SCF WAVEFUNCTION OPTIMIZATION

  Step     Update method      Time    Convergence         Total energy    Change
  ------------------------------------------------------------------------------
     1 NoMix/Diag. 0.80E-01    1.4     0.87423247     -5426.4139906501 -5.43E+03
     2 Broy./Diag. 0.80E-01    1.5     0.01576477     -5315.9238814423  1.10E+02
     3 Broy./Diag. 0.80E-01    1.5     0.05211106     -5352.2661302602 -3.63E+01
     4 Broy./Diag. 0.80E-01    1.5     0.00321963     -5416.2675756031 -6.40E+01
     5 Broy./Diag. 0.80E-01    1.5     0.02086987     -5414.4052257016  1.86E+00
     6 Broy./Diag. 0.80E-01    1.5     0.00237814     -5418.2986176458 -3.89E+00
     7 Broy./Diag. 0.80E-01    1.5     0.00930847     -5416.4825613059  1.82E+00
     8 Broy./Diag. 0.80E-01    1.5     0.00410351     -5417.6129645746 -1.13E+00
     9 Broy./Diag. 0.80E-01    1.5     0.00268835     -5417.1203637377  4.93E-01
    10 Broy./Diag. 0.80E-01    1.5     0.00288490     -5417.4772990647 -3.57E-01
    11 Broy./Diag. 0.80E-01    1.5     0.00195582     -5417.3085778538  1.69E-01
    12 Broy./Diag. 0.80E-01    1.5     0.01659012     -5417.4137141489 -1.05E-01
    13 Broy./Diag. 0.80E-01    1.5     0.00386553     -5417.2747060516  1.39E-01
    14 Broy./Diag. 0.80E-01    1.5     0.00210140     -5417.2800813793 -5.38E-03
    15 Broy./Diag. 0.80E-01    1.5     0.00263724     -5417.3884334766 -1.08E-01
[...]
   131 Broy./Diag. 0.80E-01    1.5     0.00378662     -5417.2334386879  1.43E-01
   132 Broy./Diag. 0.80E-01    1.5     0.00322046     -5417.2195092234  1.39E-02
   133 Broy./Diag. 0.80E-01    1.5     0.00133102     -5417.1741322121  4.54E-02
   134 Broy./Diag. 0.80E-01    1.5     0.00235198     -5417.2297067059 -5.56E-02
   135 Broy./Diag. 0.80E-01    1.5     0.00367463     -5417.3861552150 -1.56E-01
   136 Broy./Diag. 0.80E-01    1.5     0.00789026     -5417.3419858475  4.42E-02
   137 Broy./Diag. 0.80E-01    1.5     0.00574077     -5417.4302512572 -8.83E-02
   138 Broy./Diag. 0.80E-01    1.5     0.02608326     -5417.1250451066  3.05E-01
   139 Broy./Diag. 0.80E-01    1.5     0.00750881     -5417.6702196202 -5.45E-01
   140 Broy./Diag. 0.80E-01    1.5     0.00641975     -5417.7526737155 -8.25E-02
   141 Broy./Diag. 0.80E-01    1.5     0.00702922     -5417.9367503318 -1.84E-01
   142 Broy./Diag. 0.80E-01    1.5     0.00743779     -5417.8202859972  1.16E-01
   143 Broy./Diag. 0.80E-01    1.5     0.00291691     -5417.9009504455 -8.07E-02
   144 Broy./Diag. 0.80E-01    1.5     0.00696681     -5418.0464985356 -1.46E-01
   145 Broy./Diag. 0.80E-01    1.5     0.03818642     -5418.1187462712 -7.22E-02
   146 Broy./Diag. 0.80E-01    1.5     0.00724828     -5417.9533982104  1.65E-01
   147 Broy./Diag. 0.80E-01    1.5     0.00281046     -5417.8364570546  1.17E-01
   148 Broy./Diag. 0.80E-01    1.5     0.00131877     -5417.8073213456  2.91E-02
   149 Broy./Diag. 0.80E-01    1.5     0.00244009     -5417.8181417381 -1.08E-02
   150 Broy./Diag. 0.80E-01    1.5     0.00131668     -5417.8869165688 -6.88E-02
   151 Broy./Diag. 0.80E-01    1.5     0.00099224     -5417.8962840404 -9.37E-03
   152 Broy./Diag. 0.80E-01    1.5     0.00516710     -5417.9142792311 -1.80E-02
   153 Broy./Diag. 0.80E-01    1.5     0.00178291     -5417.8169260745  9.74E-02
   154 Broy./Diag. 0.80E-01    1.5     0.00401072     -5417.8208669306 -3.94E-03
   155 Broy./Diag. 0.80E-01    1.5     0.00273783     -5417.7961003315  2.48E-02
   156 Broy./Diag. 0.80E-01    1.5     0.02210154     -5417.8066957423 -1.06E-02
   157 Broy./Diag. 0.80E-01    1.5     0.00795967     -5417.7185567030  8.81E-02
   158 Broy./Diag. 0.80E-01    1.5     0.01062035     -5417.7006885131  1.79E-02
   159 Broy./Diag. 0.80E-01    1.5     0.00122597     -5417.6499342274  5.08E-02
   160 Broy./Diag. 0.80E-01    1.5     0.00161355     -5417.6705423264 -2.06E-02
   161 Broy./Diag. 0.80E-01    1.5     0.00377239     -5417.6233457748  4.72E-02
   162 Broy./Diag. 0.80E-01    1.5     0.00775857     -5417.5408491192  8.25E-02
   163 Broy./Diag. 0.80E-01    1.5     0.00335803     -5417.6468059551 -1.06E-01
   164 Broy./Diag. 0.80E-01    1.5     0.00297056     -5417.6804225041 -3.36E-02
   165 Broy./Diag. 0.80E-01    1.5     0.00631421     -5417.7062387635 -2.58E-02
   166 Broy./Diag. 0.80E-01    1.5     0.01651790     -5417.7179943639 -1.18E-02
   167 Broy./Diag. 0.80E-01    1.5     0.01412357     -5417.8511417440 -1.33E-01
   168 Broy./Diag. 0.80E-01    1.5     0.01070704     -5417.9753268074 -1.24E-01
   169 Broy./Diag. 0.80E-01    1.5     0.01479517     -5417.7241013368  2.51E-01
   170 Broy./Diag. 0.80E-01    1.5     0.00378069     -5417.6153693760  1.09E-01
   171 Broy./Diag. 0.80E-01    1.5     0.00234023     -5417.7171077619 -1.02E-01
   172 Broy./Diag. 0.80E-01    1.5     0.00815167     -5417.7913474031 -7.42E-02
   173 Broy./Diag. 0.80E-01    1.5     0.00541942     -5417.5267202716  2.65E-01
   174 Broy./Diag. 0.80E-01    1.5     0.00211624     -5417.6063323209 -7.96E-02
   175 Broy./Diag. 0.80E-01    1.5     0.00953470     -5417.5953681739  1.10E-02
   176 Broy./Diag. 0.80E-01    1.5     0.00470631     -5417.7112187386 -1.16E-01
   177 Broy./Diag. 0.80E-01    1.5     0.00196350     -5417.8102043397 -9.90E-02
   178 Broy./Diag. 0.80E-01    1.5     0.01426392     -5417.7287190470  8.15E-02
   179 Broy./Diag. 0.80E-01    1.5     0.00301811     -5417.7828377304 -5.41E-02
   180 Broy./Diag. 0.80E-01    1.5     0.00800147     -5417.6346616192  1.48E-01
   181 Broy./Diag. 0.80E-01    1.5     0.00237104     -5417.7641210372 -1.29E-01
   182 Broy./Diag. 0.80E-01    1.5     0.00539908     -5417.8063479637 -4.22E-02
   183 Broy./Diag. 0.80E-01    1.5     0.00391905     -5417.6560609741  1.50E-01
   184 Broy./Diag. 0.80E-01    1.5     0.00784055     -5417.6670730411 -1.10E-02
   185 Broy./Diag. 0.80E-01    1.5     0.00162697     -5417.6304245047  3.66E-02
   186 Broy./Diag. 0.80E-01    1.5     0.00158831     -5417.6813937813 -5.10E-02
   187 Broy./Diag. 0.80E-01    1.5     0.00152059     -5417.7245232840 -4.31E-02
   188 Broy./Diag. 0.80E-01    1.5     0.00483034     -5417.6820917351  4.24E-02
   189 Broy./Diag. 0.80E-01    1.5     0.00495840     -5417.7967821864 -1.15E-01
   190 Broy./Diag. 0.80E-01    1.5     0.00711254     -5417.7467301658  5.01E-02
   191 Broy./Diag. 0.80E-01    1.5     0.00618877     -5417.7675746113 -2.08E-02
   192 Broy./Diag. 0.80E-01    1.5     0.00294831     -5417.7485340368  1.90E-02
   193 Broy./Diag. 0.80E-01    1.5     0.01256617     -5417.7503432229 -1.81E-03
   194 Broy./Diag. 0.80E-01    1.5     0.00200149     -5417.7503313551  1.19E-05
   195 Broy./Diag. 0.80E-01    1.5     0.00266905     -5417.7224449841  2.79E-02
   196 Broy./Diag. 0.80E-01    1.5     0.00187813     -5417.7063114217  1.61E-02
   197 Broy./Diag. 0.80E-01    1.5     0.01126982     -5417.6863310105  2.00E-02
   198 Broy./Diag. 0.80E-01    1.5     0.00282569     -5417.6917635603 -5.43E-03
   199 Broy./Diag. 0.80E-01    1.5     0.00159468     -5417.6725150821  1.92E-02
   200 Broy./Diag. 0.80E-01    1.5     0.00172764     -5417.6824417544 -9.93E-03
   201 Broy./Diag. 0.80E-01    1.5     0.00655342     -5417.6752527915  7.19E-03
   202 Broy./Diag. 0.80E-01    1.5     0.00311069     -5417.6896212325 -1.44E-02
   203 Broy./Diag. 0.80E-01    1.5     0.00246584     -5417.6578930467  3.17E-02
   204 Broy./Diag. 0.80E-01    1.5     0.00079949     -5417.6587505056 -8.57E-04
   205 Broy./Diag. 0.80E-01    1.5     0.00264825     -5417.6466687194  1.21E-02
   206 Broy./Diag. 0.80E-01    1.5     0.00344418     -5417.6104030571  3.63E-02
   207 Broy./Diag. 0.80E-01    1.5     0.00072237     -5417.5778941228  3.25E-02
   208 Broy./Diag. 0.80E-01    1.5     0.00500492     -5417.6098074703 -3.19E-02
   209 Broy./Diag. 0.80E-01    1.5     0.00304223     -5417.6409621302 -3.12E-02
   210 Broy./Diag. 0.80E-01    1.5     0.00420608     -5417.6598705121 -1.89E-02
   211 Broy./Diag. 0.80E-01    1.5     0.00409812     -5417.6240387191  3.58E-02
   212 Broy./Diag. 0.80E-01    1.5     0.00738439     -5417.6265585693 -2.52E-03
   213 Broy./Diag. 0.80E-01    1.5     0.00216961     -5417.6830212297 -5.65E-02
   214 Broy./Diag. 0.80E-01    1.5     0.00245639     -5417.6726700126  1.04E-02
   215 Broy./Diag. 0.80E-01    1.5     0.00121916     -5417.6419156617  3.08E-02
   216 Broy./Diag. 0.80E-01    1.5     0.00221414     -5417.7059831080 -6.41E-02
   217 Broy./Diag. 0.80E-01    1.5     0.00564148     -5417.6829499665  2.30E-02
   218 Broy./Diag. 0.80E-01    1.5     0.00266188     -5417.7128321815 -2.99E-02
   219 Broy./Diag. 0.80E-01    1.5     0.00073009     -5417.7490944579 -3.63E-02
   220 Broy./Diag. 0.80E-01    1.5     0.00604350     -5417.7900450964 -4.10E-02
   221 Broy./Diag. 0.80E-01    1.5     0.00662787     -5417.8115623543 -2.15E-02
   222 Broy./Diag. 0.80E-01    1.5     0.00458499     -5417.7710191795  4.05E-02
   223 Broy./Diag. 0.80E-01    1.5     0.00123528     -5417.7469207846  2.41E-02
   224 Broy./Diag. 0.80E-01    1.5     0.00731863     -5417.7201633397  2.68E-02
   225 Broy./Diag. 0.80E-01    1.5     0.00370621     -5417.7617288838 -4.16E-02
   226 Broy./Diag. 0.80E-01    1.5     0.00013703     -5417.7484723215  1.33E-02
   227 Broy./Diag. 0.80E-01    1.5     0.00112069     -5417.7485472967 -7.50E-05
   228 Broy./Diag. 0.80E-01    1.5     0.00084358     -5417.7204677969  2.81E-02
   229 Broy./Diag. 0.80E-01    1.5     0.00091973     -5417.7447694112 -2.43E-02
   230 Broy./Diag. 0.80E-01    1.5     0.00477707     -5417.7290625762  1.57E-02
   231 Broy./Diag. 0.80E-01    1.5     0.00783937     -5417.7318545140 -2.79E-03
   232 Broy./Diag. 0.80E-01    1.5     0.00096297     -5417.6800434482  5.18E-02
   233 Broy./Diag. 0.80E-01    1.5     0.00197839     -5417.6911442683 -1.11E-02
   234 Broy./Diag. 0.80E-01    1.5     0.00028548     -5417.7451592302 -5.40E-02
   235 Broy./Diag. 0.80E-01    1.5     0.00196581     -5417.7355425879  9.62E-03
   236 Broy./Diag. 0.80E-01    1.5     0.00254049     -5417.7669220363 -3.14E-02
   237 Broy./Diag. 0.80E-01    1.5     0.00354386     -5417.7820724329 -1.52E-02
   238 Broy./Diag. 0.80E-01    1.5     0.00055334     -5417.7958514957 -1.38E-02
   239 Broy./Diag. 0.80E-01    1.5     0.00060134     -5417.7766565029  1.92E-02
   240 Broy./Diag. 0.80E-01    1.5     0.00261128     -5417.7747553810  1.90E-03
   241 Broy./Diag. 0.80E-01    1.5     0.00113910     -5417.7514292908  2.33E-02
   242 Broy./Diag. 0.80E-01    1.5     0.00244385     -5417.7857652415 -3.43E-02
   243 Broy./Diag. 0.80E-01    1.5     0.00148252     -5417.8047164145 -1.90E-02
   244 Broy./Diag. 0.80E-01    1.5     0.00423450     -5417.8061953764 -1.48E-03
   245 Broy./Diag. 0.80E-01    1.5     0.00383788     -5417.7776228775  2.86E-02
   246 Broy./Diag. 0.80E-01    1.5     0.00107432     -5417.7726903332  4.93E-03
   247 Broy./Diag. 0.80E-01    1.5     0.00359790     -5417.7755239020 -2.83E-03
   248 Broy./Diag. 0.80E-01    1.5     0.00125480     -5417.7897413272 -1.42E-02
   249 Broy./Diag. 0.80E-01    1.5     0.00172724     -5417.7853533615  4.39E-03
   250 Broy./Diag. 0.80E-01    1.5     0.00176020     -5417.7862485423 -8.95E-04
   251 Broy./Diag. 0.80E-01    1.5     0.00611345     -5417.7916894052 -5.44E-03
   252 Broy./Diag. 0.80E-01    1.5     0.00338093     -5417.8198572663 -2.82E-02
   253 Broy./Diag. 0.80E-01    1.5     0.00363666     -5417.7989128234  2.09E-02
   254 Broy./Diag. 0.80E-01    1.5     0.01180367     -5417.7710345621  2.79E-02
   255 Broy./Diag. 0.80E-01    1.5     0.01149318     -5417.7968203263 -2.58E-02
   256 Broy./Diag. 0.80E-01    1.5     0.00373239     -5417.7501117291  4.67E-02
   257 Broy./Diag. 0.80E-01    1.5     0.02081867     -5417.7528291768 -2.72E-03
   258 Broy./Diag. 0.80E-01    1.5     0.00688921     -5417.8039694039 -5.11E-02
   259 Broy./Diag. 0.80E-01    1.5     0.00227596     -5417.7906181427  1.34E-02
   260 Broy./Diag. 0.80E-01    1.5     0.00673042     -5417.7876056143  3.01E-03
   261 Broy./Diag. 0.80E-01    1.5     0.00120547     -5417.8093420851 -2.17E-02
   262 Broy./Diag. 0.80E-01    1.5     0.00096045     -5417.8172157160 -7.87E-03
   263 Broy./Diag. 0.80E-01    1.5     0.00169968     -5417.8288196253 -1.16E-02
   264 Broy./Diag. 0.80E-01    1.5     0.00295759     -5417.8379323451 -9.11E-03
   265 Broy./Diag. 0.80E-01    1.5     0.00470797     -5417.8157874849  2.21E-02
   266 Broy./Diag. 0.80E-01    1.5     0.00305054     -5417.8512743337 -3.55E-02
   267 Broy./Diag. 0.80E-01    1.5     0.00530031     -5417.8303940966  2.09E-02
   268 Broy./Diag. 0.80E-01    1.5     0.00677770     -5417.8587068052 -2.83E-02
   269 Broy./Diag. 0.80E-01    1.5     0.00391350     -5417.8268632423  3.18E-02
   270 Broy./Diag. 0.80E-01    1.5     0.00124595     -5417.8450593072 -1.82E-02
   271 Broy./Diag. 0.80E-01    1.5     0.00614319     -5417.8483499409 -3.29E-03
   272 Broy./Diag. 0.80E-01    1.5     0.00851253     -5417.7866546879  6.17E-02
   273 Broy./Diag. 0.80E-01    1.5     0.00734748     -5417.8504025291 -6.37E-02
   274 Broy./Diag. 0.80E-01    1.5     0.00395291     -5417.7835435083  6.69E-02
   275 Broy./Diag. 0.80E-01    1.5     0.00772049     -5417.7910027924 -7.46E-03
   276 Broy./Diag. 0.80E-01    1.5     0.00305596     -5417.7737602029  1.72E-02
   277 Broy./Diag. 0.80E-01    1.5     0.00619230     -5417.7352747898  3.85E-02
   278 Broy./Diag. 0.80E-01    1.5     0.01237261     -5417.7432594777 -7.98E-03
   279 Broy./Diag. 0.80E-01    1.5     0.00301298     -5417.7636274884 -2.04E-02
   280 Broy./Diag. 0.80E-01    1.5     0.00161946     -5417.7759636647 -1.23E-02
   281 Broy./Diag. 0.80E-01    1.5     0.00367007     -5417.7705411348  5.42E-03
   282 Broy./Diag. 0.80E-01    1.5     0.00648126     -5417.8057232166 -3.52E-02
   283 Broy./Diag. 0.80E-01    1.5     0.00103253     -5417.7795773255  2.61E-02
   284 Broy./Diag. 0.80E-01    1.5     0.01427323     -5417.7819768272 -2.40E-03
   285 Broy./Diag. 0.80E-01    1.5     0.00263660     -5417.8016904171 -1.97E-02
   286 Broy./Diag. 0.80E-01    1.5     0.00821962     -5417.7677066392  3.40E-02
   287 Broy./Diag. 0.80E-01    1.5     0.00834328     -5417.8156232846 -4.79E-02
   288 Broy./Diag. 0.80E-01    1.5     0.00591284     -5417.8060541959  9.57E-03
   289 Broy./Diag. 0.80E-01    1.5     0.00360438     -5417.8343592324 -2.83E-02
   290 Broy./Diag. 0.80E-01    1.5     0.00161227     -5417.8412397286 -6.88E-03
   291 Broy./Diag. 0.80E-01    1.5     0.00292578     -5417.8461881435 -4.95E-03
   292 Broy./Diag. 0.80E-01    1.5     0.00322616     -5417.8663610819 -2.02E-02
   293 Broy./Diag. 0.80E-01    1.5     0.01225611     -5417.8320636265  3.43E-02
   294 Broy./Diag. 0.80E-01    1.5     0.01530064     -5417.8852080218 -5.31E-02
   295 Broy./Diag. 0.80E-01    1.5     0.00150604     -5417.8177579559  6.75E-02
   296 Broy./Diag. 0.80E-01    1.5     0.00098904     -5417.8292278535 -1.15E-02
   297 Broy./Diag. 0.80E-01    1.5     0.00175166     -5417.8219259017  7.30E-03
   298 Broy./Diag. 0.80E-01    1.5     0.00320367     -5417.8150477175  6.88E-03
   299 Broy./Diag. 0.80E-01    1.5     0.01170241     -5417.8074643743  7.58E-03
   300 Broy./Diag. 0.80E-01    1.5     0.00412737     -5417.8862421132 -7.88E-02
   301 Broy./Diag. 0.80E-01    1.5     0.00199218     -5417.8930822815 -6.84E-03
   302 Broy./Diag. 0.80E-01    1.5     0.00198313     -5417.8908591472  2.22E-03
   303 Broy./Diag. 0.80E-01    1.5     0.00099083     -5417.8999317939 -9.07E-03
   304 Broy./Diag. 0.80E-01    1.5     0.00521269     -5417.9176309466 -1.77E-02
   305 Broy./Diag. 0.80E-01    1.5     0.00349110     -5417.8968329749  2.08E-02
   306 Broy./Diag. 0.80E-01    1.5     0.00293283     -5417.9348789614 -3.80E-02
   307 Broy./Diag. 0.80E-01    1.5     0.00244542     -5417.9651767751 -3.03E-02
   308 Broy./Diag. 0.80E-01    1.5     0.00204066     -5417.9573530123  7.82E-03
   309 Broy./Diag. 0.80E-01    1.5     0.00543968     -5417.9101752974  4.72E-02
   310 Broy./Diag. 0.80E-01    1.5     0.00549882     -5417.8907186357  1.95E-02
   311 Broy./Diag. 0.80E-01    1.5     0.00357231     -5417.8582434087  3.25E-02
   312 Broy./Diag. 0.80E-01    1.5     0.00417949     -5417.8640603676 -5.82E-03
   313 Broy./Diag. 0.80E-01    1.5     0.00370462     -5417.8750954822 -1.10E-02
   314 Broy./Diag. 0.80E-01    1.5     0.00514791     -5417.9204014953 -4.53E-02
   315 Broy./Diag. 0.80E-01    1.5     0.00050347     -5417.9378531807 -1.75E-02
   316 Broy./Diag. 0.80E-01    1.5     0.00341528     -5417.9149960372  2.29E-02
   317 Broy./Diag. 0.80E-01    1.5     0.00081023     -5417.9055358039  9.46E-03
   318 Broy./Diag. 0.80E-01    1.5     0.00818889     -5417.8640264820  4.15E-02
   319 Broy./Diag. 0.80E-01    1.5     0.00744776     -5417.8259598044  3.81E-02
   320 Broy./Diag. 0.80E-01    1.5     0.00193082     -5417.7371880600  8.88E-02
   321 Broy./Diag. 0.80E-01    1.5     0.00121115     -5417.7720592710 -3.49E-02
   322 Broy./Diag. 0.80E-01    1.5     0.00139664     -5417.7617902181  1.03E-02
   323 Broy./Diag. 0.80E-01    1.5     0.00034922     -5417.7741417838 -1.24E-02
   324 Broy./Diag. 0.80E-01    1.5     0.00200352     -5417.7834951559 -9.35E-03
   325 Broy./Diag. 0.80E-01    1.5     0.00154113     -5417.7773376153  6.16E-03
   326 Broy./Diag. 0.80E-01    1.5     0.00492059     -5417.7847059276 -7.37E-03
   327 Broy./Diag. 0.80E-01    1.5     0.00865268     -5417.7711322417  1.36E-02
   328 Broy./Diag. 0.80E-01    1.5     0.00064355     -5417.7318054250  3.93E-02
   329 Broy./Diag. 0.80E-01    1.5     0.00126102     -5417.7209574733  1.08E-02
   330 Broy./Diag. 0.80E-01    1.5     0.00057378     -5417.7219211801 -9.64E-04
   331 Broy./Diag. 0.80E-01    1.5     0.00223292     -5417.7260336024 -4.11E-03
   332 Broy./Diag. 0.80E-01    1.5     0.00511387     -5417.7376089674 -1.16E-02
   333 Broy./Diag. 0.80E-01    1.5     0.00525127     -5417.7523984567 -1.48E-02
   334 Broy./Diag. 0.80E-01    1.5     0.00628111     -5417.7827406013 -3.03E-02
   335 Broy./Diag. 0.80E-01    1.5     0.00069224     -5417.8075499879 -2.48E-02
   336 Broy./Diag. 0.80E-01    1.5     0.01544570     -5417.8031818955  4.37E-03
   337 Broy./Diag. 0.80E-01    1.5     0.00396039     -5417.7239411015  7.92E-02
   338 Broy./Diag. 0.80E-01    1.5     0.01522735     -5417.7403297699 -1.64E-02
   339 Broy./Diag. 0.80E-01    1.5     0.00114237     -5417.6659964100  7.43E-02
   340 Broy./Diag. 0.80E-01    1.5     0.00818437     -5417.6680340741 -2.04E-03
   341 Broy./Diag. 0.80E-01    1.5     0.00362123     -5417.7132793809 -4.52E-02
   342 Broy./Diag. 0.80E-01    1.5     0.00112104     -5417.7173544062 -4.08E-03
   343 Broy./Diag. 0.80E-01    1.5     0.00155034     -5417.7207620095 -3.41E-03
   344 Broy./Diag. 0.80E-01    1.5     0.00015699     -5417.7117183982  9.04E-03
   345 Broy./Diag. 0.80E-01    1.5     0.00657339     -5417.7110833558  6.35E-04
   346 Broy./Diag. 0.80E-01    1.5     0.00084797     -5417.7427550950 -3.17E-02
   347 Broy./Diag. 0.80E-01    1.5     0.00736180     -5417.7463530670 -3.60E-03
   348 Broy./Diag. 0.80E-01    1.5     0.00485462     -5417.7794306643 -3.31E-02
   349 Broy./Diag. 0.80E-01    1.5     0.00240015     -5417.7879663349 -8.54E-03
   350 Broy./Diag. 0.80E-01    1.5     0.01157476     -5417.7741196744  1.38E-02
   351 Broy./Diag. 0.80E-01    1.5     0.00667735     -5417.7295055708  4.46E-02
   352 Broy./Diag. 0.80E-01    1.5     0.00967052     -5417.7668312352 -3.73E-02
   353 Broy./Diag. 0.80E-01    1.5     0.00378804     -5417.7327521239  3.41E-02
   354 Broy./Diag. 0.80E-01    1.5     0.00758342     -5417.7389986963 -6.25E-03
   355 Broy./Diag. 0.80E-01    1.5     0.00626321     -5417.7692611381 -3.03E-02
   356 Broy./Diag. 0.80E-01    1.5     0.00572581     -5417.7514951120  1.78E-02
   357 Broy./Diag. 0.80E-01    1.5     0.00432336     -5417.7649991898 -1.35E-02
   358 Broy./Diag. 0.80E-01    1.5     0.00297957     -5417.7615751301  3.42E-03
   359 Broy./Diag. 0.80E-01    1.5     0.00329178     -5417.7613998640  1.75E-04
   360 Broy./Diag. 0.80E-01    1.5     0.00681456     -5417.7569416520  4.46E-03
   361 Broy./Diag. 0.80E-01    1.5     0.00253555     -5417.7912553983 -3.43E-02
   362 Broy./Diag. 0.80E-01    1.5     0.00381626     -5417.7785841237  1.27E-02
   363 Broy./Diag. 0.80E-01    1.5     0.00349776     -5417.7970203243 -1.84E-02
   364 Broy./Diag. 0.80E-01    1.5     0.00102113     -5417.7869537191  1.01E-02
   365 Broy./Diag. 0.80E-01    1.5     0.00241812     -5417.7910976562 -4.14E-03
   366 Broy./Diag. 0.80E-01    1.5     0.00062008     -5417.8004298120 -9.33E-03
   367 Broy./Diag. 0.80E-01    1.5     0.00340939     -5417.7975511713  2.88E-03
   368 Broy./Diag. 0.80E-01    1.5     0.00256832     -5417.7876259577  9.93E-03
   369 Broy./Diag. 0.80E-01    1.5     0.00564658     -5417.7786338890  8.99E-03
   370 Broy./Diag. 0.80E-01    1.5     0.00213230     -5417.7576127482  2.10E-02
   371 Broy./Diag. 0.80E-01    1.5     0.00175507     -5417.7580326242 -4.20E-04
   372 Broy./Diag. 0.80E-01    1.5     0.00461235     -5417.7817203769 -2.37E-02
   373 Broy./Diag. 0.80E-01    1.5     0.00307454     -5417.8379603934 -5.62E-02
   374 Broy./Diag. 0.80E-01    1.5     0.00370060     -5417.8430387282 -5.08E-03
   375 Broy./Diag. 0.80E-01    1.5     0.00265079     -5417.8266767243  1.64E-02
   376 Broy./Diag. 0.80E-01    1.5     0.00438898     -5417.8366187579 -9.94E-03
