 DBCSR| CPU Multiplication driver                                           XSMM (U)
 DBCSR| Multrec recursion limit                                              512 (U)
 DBCSR| Multiplication stack size                                           1000 (D)
 DBCSR| Maximum elements for images                                    UNLIMITED (U)
 DBCSR| Multiplicative factor virtual images                                   1 (U)
 DBCSR| Use multiplication densification                                       T (D)
 DBCSR| Multiplication size stacks                                             3 (U)
 DBCSR| Use memory pool for CPU allocation                                     F (U)
 DBCSR| Number of 3D layers                                               SINGLE (U)
 DBCSR| Use MPI memory allocation                                              F (U)
 DBCSR| Use RMA algorithm                                                      F (U)
 DBCSR| Use Communication thread                                               T (U)
 DBCSR| Communication thread load                                             87 (D)
 DBCSR| MPI: My process id                                                     0
 DBCSR| MPI: Number of processes                                             128
 DBCSR| OMP: Current number of threads                                         1
 DBCSR| OMP: Max number of threads                                             1
 DBCSR| Split modifier for TAS multiplication algorithm                  1.0E+00 (U)


  **** **** ******  **  PROGRAM STARTED AT               2023-02-15 10:19:56.490
 ***** ** ***  *** **   PROGRAM STARTED ON                             nid001452
 **    ****   ******    PROGRAM STARTED BY                                cahart
 ***** **    ** ** **   PROGRAM PROCESS ID                                156919
  **** **  *******  **  PROGRAM STARTED IN /mnt/lustre/a2fs-work2/work/e05/e05/c
                                           ahart/postdoc/masters/ni/archer2/slab
                                           /optimise/magnetisation/scf_1e-3_temp
                                           -2000_mos-1000_alpha-0.08_beta-1.5_pe
                                           riodic-xyz/search/0.37_0.6

 CP2K| version string:                 CP2K version 2023.1 (Development Version)
 CP2K| source code revision number:                                  git:964cd58
 CP2K| cp2kflags: omp libint fftw3 libxc elpa parallel scalapack xsmm plumed2 mk
 CP2K|            l
 CP2K| is freely available from                            https://www.cp2k.org/
 CP2K| Program compiled at                          Mon 13 Feb 17:05:14 GMT 2023
 CP2K| Program compiled on                                                  ln01
 CP2K| Program compiled for                                              ARCHER2
 CP2K| Data directory path    /work/e05/e05/cahart/cp2k/cp2k-2023.1/cp2k-2023.1-
 CP2K| Input file name                                                  cp2k.inp

 GLOBAL| Force Environment number                                              1
 GLOBAL| Basis set file name                                        BASIS_MOLOPT
 GLOBAL| Potential file name                                      GTH_POTENTIALS
 GLOBAL| MM Potential file name                                     MM_POTENTIAL
 GLOBAL| Coordinate file name                                      __STD_INPUT__
 GLOBAL| Method name                                                        CP2K
 GLOBAL| Project name                                                    Ni_bulk
 GLOBAL| Run type                                                         ENERGY
 GLOBAL| FFT library                                                       FFTW3
 GLOBAL| Diagonalization library                                            ELPA
 GLOBAL| DGEMM library                                                      BLAS
 GLOBAL| Minimum number of eigenvectors for ELPA usage                        16
 GLOBAL| Orthonormality check for eigenvectors                          DISABLED
 GLOBAL| Matrix multiplication library                                 ScaLAPACK
 GLOBAL| All-to-all communication in single precision                          F
 GLOBAL| FFTs using library dependent lengths                                  F
 GLOBAL| Grid backend                                                       AUTO
 GLOBAL| Global print level                                               MEDIUM
 GLOBAL| MPI I/O enabled                                                       T
 GLOBAL| Total number of message passing processes                           128
 GLOBAL| Number of threads for this process                                    1
 GLOBAL| This output is from process                                           0
 GLOBAL| Stack size for threads created by OpenMP (OMP_STACKSIZE)        default
 GLOBAL| CPU model name                          AMD EPYC 7742 64-Core Processor
 GLOBAL| CPUID                                                              1002

 MEMORY| system memory details [Kb]
 MEMORY|                        rank 0           min           max       average
 MEMORY| MemTotal            263527824     263527824     263527824     263527824
 MEMORY| MemFree             238561864     238561864     238561864     238561864
 MEMORY| Buffers                 25160         25160         25160         25160
 MEMORY| Cached                 738176        738176        738176        738176
 MEMORY| Slab                  1649996       1649996       1649996       1649996
 MEMORY| SReclaimable           132088        132088        132088        132088
 MEMORY| MemLikelyFree       239457288     239457288     239457288     239457288


 *** Fundamental physical constants (SI units) ***

 *** Literature: B. J. Mohr and B. N. Taylor,
 ***             CODATA recommended values of the fundamental physical
 ***             constants: 2006, Web Version 5.1
 ***             http://physics.nist.gov/constants

 Speed of light in vacuum [m/s]                             2.99792458000000E+08
 Magnetic constant or permeability of vacuum [N/A**2]       1.25663706143592E-06
 Electric constant or permittivity of vacuum [F/m]          8.85418781762039E-12
 Planck constant (h) [J*s]                                  6.62606896000000E-34
 Planck constant (h-bar) [J*s]                              1.05457162825177E-34
 Elementary charge [C]                                      1.60217648700000E-19
 Electron mass [kg]                                         9.10938215000000E-31
 Electron g factor [ ]                                     -2.00231930436220E+00
 Proton mass [kg]                                           1.67262163700000E-27
 Fine-structure constant                                    7.29735253760000E-03
 Rydberg constant [1/m]                                     1.09737315685270E+07
 Avogadro constant [1/mol]                                  6.02214179000000E+23
 Boltzmann constant [J/K]                                   1.38065040000000E-23
 Atomic mass unit [kg]                                      1.66053878200000E-27
 Bohr radius [m]                                            5.29177208590000E-11

 *** Conversion factors ***

 [u] -> [a.u.]                                              1.82288848426455E+03
 [Angstrom] -> [Bohr] = [a.u.]                              1.88972613288564E+00
 [a.u.] = [Bohr] -> [Angstrom]                              5.29177208590000E-01
 [a.u.] -> [s]                                              2.41888432650478E-17
 [a.u.] -> [fs]                                             2.41888432650478E-02
 [a.u.] -> [J]                                              4.35974393937059E-18
 [a.u.] -> [N]                                              8.23872205491840E-08
 [a.u.] -> [K]                                              3.15774647902944E+05
 [a.u.] -> [kJ/mol]                                         2.62549961709828E+03
 [a.u.] -> [kcal/mol]                                       6.27509468713739E+02
 [a.u.] -> [Pa]                                             2.94210107994716E+13
 [a.u.] -> [bar]                                            2.94210107994716E+08
 [a.u.] -> [atm]                                            2.90362800883016E+08
 [a.u.] -> [eV]                                             2.72113838565563E+01
 [a.u.] -> [Hz]                                             6.57968392072181E+15
 [a.u.] -> [1/cm] (wave numbers)                            2.19474631370540E+05
 [a.u./Bohr**2] -> [1/cm]                                   5.14048714338585E+03
 

 CELL_TOP| Volume [angstrom^3]:                                       983.249569
 CELL_TOP| Vector a [angstrom     7.012     0.000     0.000   |a| =     7.011596
 CELL_TOP| Vector b [angstrom     0.000     7.012     0.000   |b| =     7.011596
 CELL_TOP| Vector c [angstrom     0.000     0.000    20.000   |c| =    20.000000
 CELL_TOP| Angle (b,c), alpha [degree]:                                90.000000
 CELL_TOP| Angle (a,c), beta  [degree]:                                90.000000
 CELL_TOP| Angle (a,b), gamma [degree]:                                90.000000
 CELL_TOP| Numerically orthorhombic:                                         YES
 CELL_TOP| Periodicity                                                       XYZ

 GENERATE|  Preliminary Number of Bonds generated:                             0
 GENERATE|  Achieved consistency in connectivity generation.

 CELL| Volume [angstrom^3]:                                           983.249569
 CELL| Vector a [angstrom]:       7.012     0.000     0.000   |a| =     7.011596
 CELL| Vector b [angstrom]:       0.000     7.012     0.000   |b| =     7.011596
 CELL| Vector c [angstrom]:       0.000     0.000    20.000   |c| =    20.000000
 CELL| Angle (b,c), alpha [degree]:                                    90.000000
 CELL| Angle (a,c), beta  [degree]:                                    90.000000
 CELL| Angle (a,b), gamma [degree]:                                    90.000000
 CELL| Numerically orthorhombic:                                             YES
 CELL| Periodicity                                                           XYZ

 CELL_REF| Volume [angstrom^3]:                                       983.249569
 CELL_REF| Vector a [angstrom     7.012     0.000     0.000   |a| =     7.011596
 CELL_REF| Vector b [angstrom     0.000     7.012     0.000   |b| =     7.011596
 CELL_REF| Vector c [angstrom     0.000     0.000    20.000   |c| =    20.000000
 CELL_REF| Angle (b,c), alpha [degree]:                                90.000000
 CELL_REF| Angle (a,c), beta  [degree]:                                90.000000
 CELL_REF| Angle (a,b), gamma [degree]:                                90.000000
 CELL_REF| Numerically orthorhombic:                                         YES
 CELL_REF| Periodicity                                                       XYZ

 *** WARNING in cryssym.F:165 :: Symmetry library SPGLIB not available ***


 *******************************************************************************
                                    Kpoints
 *******************************************************************************
 BRILLOUIN| K-point scheme                                        Monkhorst-Pack
 BRILLOUIN| K-Point grid                                             4    4    1
 BRILLOUIN| Accuracy in Symmetry determination                      0.100000E-05
 BRILLOUIN| K-Point point group symmetrization                               OFF
 BRILLOUIN| Wavefunction type                                            COMPLEX
 BRILLOUIN| List of Kpoints [2 Pi/Bohr]                                        8
 BRILLOUIN| Number           Weight            X              Y              Z
 BRILLOUIN|     1           0.12500       -0.37500       -0.37500        0.00000
 BRILLOUIN|     2           0.12500       -0.37500       -0.12500        0.00000
 BRILLOUIN|     3           0.12500       -0.37500        0.12500        0.00000
 BRILLOUIN|     4           0.12500       -0.37500        0.37500        0.00000
 BRILLOUIN|     5           0.12500       -0.12500       -0.37500        0.00000
 BRILLOUIN|     6           0.12500       -0.12500       -0.12500        0.00000
 BRILLOUIN|     7           0.12500       -0.12500        0.12500        0.00000
 BRILLOUIN|     8           0.12500       -0.12500        0.37500        0.00000
 *******************************************************************************

 *******************************************************************************
 *******************************************************************************
 **                                                                           **
 **     #####                         ##              ##                      **
 **    ##   ##            ##          ##              ##                      **
 **   ##     ##                       ##            ######                    **
 **   ##     ##  ##   ##  ##   #####  ##  ##   ####   ##    #####    #####    **
 **   ##     ##  ##   ##  ##  ##      ## ##   ##      ##   ##   ##  ##   ##   **
 **   ##  ## ##  ##   ##  ##  ##      ####     ###    ##   ######   ######    **
 **    ##  ###   ##   ##  ##  ##      ## ##      ##   ##   ##       ##        **
 **     #######   #####   ##   #####  ##  ##  ####    ##    #####   ##        **
 **           ##                                                    ##        **
 **                                                                           **
 **                                                ... make the atoms dance   **
 **                                                                           **
 **            Copyright (C) by CP2K developers group (2000-2023)             **
 **                      J. Chem. Phys. 152, 194103 (2020)                    **
 **                                                                           **
 *******************************************************************************

 *** WARNING in qs_environment.F:1456 :: Number of electrons will be ***
 *** overwritten by NELEC_ALPHA and NELEC_BETA, multiplicity will be ***
 *** ignored.                                                        ***

 Number of electrons should be                                               576
 Sum of NELEC_ALPHA and NELEC_BETA is                                    576.000

 *** WARNING in qs_environment.F:1488 :: NELEC_ALPHA is not an integer, ***
 *** many features will not be supported.                               ***


 *** WARNING in qs_environment.F:1500 :: NELEC_BETA is not an integer, ***
 *** many features will not be supported.                              ***


 *** WARNING in qs_environment.F:1532 :: More ADDED_MOs requested for beta ***
 *** spin than available.                                                  ***


 *** WARNING in qs_environment.F:1548 :: More added MOs requested than     ***
 *** available. The full set of unoccupied MOs will be used. Use           ***
 *** 'ADDED_MOS -1' to always use all available MOs and to get rid of this ***
 *** warning.                                                              ***


 DFT| Spin unrestricted (spin-polarized) Kohn-Sham calculation               UKS
 DFT| Multiplicity                                                             1
 DFT| Number of spin states                                                    2
 DFT| Charge                                                                   0
 DFT| Self-interaction correction (SIC)                                       NO
 DFT| Cutoffs: density                                              1.000000E-10
 DFT|          gradient                                             1.000000E-10
 DFT|          tau                                                  1.000000E-10
 DFT|          cutoff_smoothing_range                               0.000000E+00
 DFT| XC density smoothing                                                  NONE
 DFT| XC derivatives                                                          PW

 FUNCTIONAL| PBE:
 FUNCTIONAL| J.P.Perdew, K.Burke, M.Ernzerhof, Phys. Rev. Letter, vol. 77, n 18,
 FUNCTIONAL|  pp. 3865-3868, (1996){spin polarized}                             

 vdW POTENTIAL|                                                   Pair Potential
 vdW POTENTIAL|          DFT-D3 (Version 3.1)
 vdW POTENTIAL|          Potential Form: S. Grimme et al, JCP 132: 154104 (2010)
 vdW POTENTIAL|          Zero Damping
 vdW POTENTIAL|          Cutoff Radius [Bohr]:                             20.00
 vdW POTENTIAL|          s6 Scaling Factor:                               1.0000
 vdW POTENTIAL|          sr6 Scaling Factor:                              1.2170
 vdW POTENTIAL|          s8 Scaling Factor:                               0.7220
 vdW POTENTIAL|          Cutoff for CN calculation:                   0.1000E-05

 QS| Method:                                                                 GPW
 QS| Density plane wave grid type                        NON-SPHERICAL FULLSPACE
 QS| Number of grid levels:                                                    5
 QS| Density cutoff [a.u.]:                                                300.0
 QS| Multi grid cutoff [a.u.]: 1) grid level                               300.0
 QS|                           2) grid level                               100.0
 QS|                           3) grid level                                33.3
 QS|                           4) grid level                                11.1
 QS|                           5) grid level                                 3.7
 QS| Grid level progression factor:                                          3.0
 QS| Relative density cutoff [a.u.]:                                        30.0
 QS| Interaction thresholds: eps_pgf_orb:                                1.0E-06
 QS|                         eps_filter_matrix:                          0.0E+00
 QS|                         eps_core_charge:                            1.0E-14
 QS|                         eps_rho_gspace:                             1.0E-12
 QS|                         eps_rho_rspace:                             1.0E-12
 QS|                         eps_gvg_rspace:                             1.0E-06
 QS|                         eps_ppl:                                    1.0E-02
 QS|                         eps_ppnl:                                   1.0E-08


 ATOMIC KIND INFORMATION

  1. Atomic kind: Ni_i                                  Number of atoms:      16

     Orbital Basis Set                                        DZVP-MOLOPT-SR-GTH

       Number of orbital shell sets:                                           1
       Number of orbital shells:                                               8
       Number of primitive Cartesian functions:                                6
       Number of Cartesian basis functions:                                   31
       Number of spherical basis functions:                                   26
       Norm type:                                                              2

       Normalised Cartesian orbitals:

                        Set   Shell   Orbital            Exponent    Coefficient

                          1       1    2s               10.077428      -0.684558
                                                         5.847736      -0.844524
                                                         2.494033       1.088856
                                                         0.988355       0.395503
                                                         0.344978       0.010224
                                                         0.099466      -0.003250

                          1       2    3s               10.077428       0.096747
                                                         5.847736       0.162504
                                                         2.494033      -0.297192
                                                         0.988355      -0.319752
                                                         0.344978       0.088318
                                                         0.099466       0.118587

                          1       3    4s               10.077428       0.036437
                                                         5.847736      -0.381480
                                                         2.494033       0.003759
                                                         0.988355      -1.048256
                                                         0.344978       0.855825
                                                         0.099466      -0.176350

                          1       4    3px              10.077428      -3.133913
                                                         5.847736       3.027656
                                                         2.494033       2.353227
                                                         0.988355       0.554184
                                                         0.344978       0.019462
                                                         0.099466      -0.000291
                          1       4    3py              10.077428      -3.133913
                                                         5.847736       3.027656
                                                         2.494033       2.353227
                                                         0.988355       0.554184
                                                         0.344978       0.019462
                                                         0.099466      -0.000291
                          1       4    3pz              10.077428      -3.133913
                                                         5.847736       3.027656
                                                         2.494033       2.353227
                                                         0.988355       0.554184
                                                         0.344978       0.019462
                                                         0.099466      -0.000291

                          1       5    4px              10.077428      -0.112729
                                                         5.847736      -0.114008
                                                         2.494033      -0.347303
                                                         0.988355      -0.110323
                                                         0.344978       0.154096
                                                         0.099466       0.058386
                          1       5    4py              10.077428      -0.112729
                                                         5.847736      -0.114008
                                                         2.494033      -0.347303
                                                         0.988355      -0.110323
                                                         0.344978       0.154096
                                                         0.099466       0.058386
                          1       5    4pz              10.077428      -0.112729
                                                         5.847736      -0.114008
                                                         2.494033      -0.347303
                                                         0.988355      -0.110323
                                                         0.344978       0.154096
                                                         0.099466       0.058386

                          1       6    4dx2             10.077428       8.232726
                                                         5.847736       9.105758
                                                         2.494033       2.849835
                                                         0.988355       0.554319
                                                         0.344978       0.067245
                                                         0.099466       0.001940
                          1       6    4dxy             10.077428      14.259500
                                                         5.847736      15.771636
                                                         2.494033       4.936060
                                                         0.988355       0.960109
                                                         0.344978       0.116472
                                                         0.099466       0.003360
                          1       6    4dxz             10.077428      14.259500
                                                         5.847736      15.771636
                                                         2.494033       4.936060
                                                         0.988355       0.960109
                                                         0.344978       0.116472
                                                         0.099466       0.003360
                          1       6    4dy2             10.077428       8.232726
                                                         5.847736       9.105758
                                                         2.494033       2.849835
                                                         0.988355       0.554319
                                                         0.344978       0.067245
                                                         0.099466       0.001940
                          1       6    4dyz             10.077428      14.259500
                                                         5.847736      15.771636
                                                         2.494033       4.936060
                                                         0.988355       0.960109
                                                         0.344978       0.116472
                                                         0.099466       0.003360
                          1       6    4dz2             10.077428       8.232726
                                                         5.847736       9.105758
                                                         2.494033       2.849835
                                                         0.988355       0.554319
                                                         0.344978       0.067245
                                                         0.099466       0.001940

                          1       7    5dx2             10.077428      -2.715373
                                                         5.847736      -4.020640
                                                         2.494033      -1.397569
                                                         0.988355      -0.076143
                                                         0.344978       0.033435
                                                         0.099466       0.026032
                          1       7    5dxy             10.077428      -4.703164
                                                         5.847736      -6.963952
                                                         2.494033      -2.420661
                                                         0.988355      -0.131883
                                                         0.344978       0.057911
                                                         0.099466       0.045088
                          1       7    5dxz             10.077428      -4.703164
                                                         5.847736      -6.963952
                                                         2.494033      -2.420661
                                                         0.988355      -0.131883
                                                         0.344978       0.057911
                                                         0.099466       0.045088
                          1       7    5dy2             10.077428      -2.715373
                                                         5.847736      -4.020640
                                                         2.494033      -1.397569
                                                         0.988355      -0.076143
                                                         0.344978       0.033435
                                                         0.099466       0.026032
                          1       7    5dyz             10.077428      -4.703164
                                                         5.847736      -6.963952
                                                         2.494033      -2.420661
                                                         0.988355      -0.131883
                                                         0.344978       0.057911
                                                         0.099466       0.045088
                          1       7    5dz2             10.077428      -2.715373
                                                         5.847736      -4.020640
                                                         2.494033      -1.397569
                                                         0.988355      -0.076143
                                                         0.344978       0.033435
                                                         0.099466       0.026032

                          1       8    5fx3             10.077428      -0.467694
                                                         5.847736       0.618100
                                                         2.494033       0.066069
                                                         0.988355       0.262898
                                                         0.344978       0.004720
                                                         0.099466       0.007748
                          1       8    5fx2y            10.077428      -1.045795
                                                         5.847736       1.382114
                                                         2.494033       0.147734
                                                         0.988355       0.587859
                                                         0.344978       0.010555
                                                         0.099466       0.017325
                          1       8    5fx2z            10.077428      -1.045795
                                                         5.847736       1.382114
                                                         2.494033       0.147734
                                                         0.988355       0.587859
                                                         0.344978       0.010555
                                                         0.099466       0.017325
                          1       8    5fxy2            10.077428      -1.045795
                                                         5.847736       1.382114
                                                         2.494033       0.147734
                                                         0.988355       0.587859
                                                         0.344978       0.010555
                                                         0.099466       0.017325
                          1       8    5fxyz            10.077428      -1.811371
                                                         5.847736       2.393892
                                                         2.494033       0.255883
                                                         0.988355       1.018201
                                                         0.344978       0.018282
                                                         0.099466       0.030008
                          1       8    5fxz2            10.077428      -1.045795
                                                         5.847736       1.382114
                                                         2.494033       0.147734
                                                         0.988355       0.587859
                                                         0.344978       0.010555
                                                         0.099466       0.017325
                          1       8    5fy3             10.077428      -0.467694
                                                         5.847736       0.618100
                                                         2.494033       0.066069
                                                         0.988355       0.262898
                                                         0.344978       0.004720
                                                         0.099466       0.007748
                          1       8    5fy2z            10.077428      -1.045795
                                                         5.847736       1.382114
                                                         2.494033       0.147734
                                                         0.988355       0.587859
                                                         0.344978       0.010555
                                                         0.099466       0.017325
                          1       8    5fyz2            10.077428      -1.045795
                                                         5.847736       1.382114
                                                         2.494033       0.147734
                                                         0.988355       0.587859
                                                         0.344978       0.010555
                                                         0.099466       0.017325
                          1       8    5fz3             10.077428      -0.467694
                                                         5.847736       0.618100
                                                         2.494033       0.066069
                                                         0.988355       0.262898
                                                         0.344978       0.004720
                                                         0.099466       0.007748

       Atomic covalent radius [Angstrom]:                                  1.150

       Atomic van der Waals radius [Angstrom]:                             1.630

     GTH Potential information for                                   GTH-PBE-q18

       Description:                       Goedecker-Teter-Hutter pseudopotential
                                           Goedecker et al., PRB 54, 1703 (1996)
                                          Hartwigsen et al., PRB 58, 3641 (1998)
                                                      Krack, TCA 114, 145 (2005)

       Gaussian exponent of the core charge distribution:               4.081633
       Electronic configuration (s p d ...):                           4   6   8

       Parameters of the local part of the GTH pseudopotential:

                          rloc        C1          C2          C3          C4
                        0.350000    2.102166    0.648484

       Parameters of the non-local part of the GTH pseudopotential:

                   l      r(l)      h(i,j,l)

                   0    0.261295    0.622658    9.970227
                                    9.970227  -12.871507
                   1    0.224253  -11.142708   12.429566
                                   12.429566  -14.706861
                   2    0.215348  -12.628146

  2. Atomic kind: Ni_b                                  Number of atoms:      16

     Orbital Basis Set                                        DZVP-MOLOPT-SR-GTH

       Number of orbital shell sets:                                           1
       Number of orbital shells:                                               8
       Number of primitive Cartesian functions:                                6
       Number of Cartesian basis functions:                                   31
       Number of spherical basis functions:                                   26
       Norm type:                                                              2

       Normalised Cartesian orbitals:

                        Set   Shell   Orbital            Exponent    Coefficient

                          1       1    2s               10.077428      -0.684558
                                                         5.847736      -0.844524
                                                         2.494033       1.088856
                                                         0.988355       0.395503
                                                         0.344978       0.010224
                                                         0.099466      -0.003250

                          1       2    3s               10.077428       0.096747
                                                         5.847736       0.162504
                                                         2.494033      -0.297192
                                                         0.988355      -0.319752
                                                         0.344978       0.088318
                                                         0.099466       0.118587

                          1       3    4s               10.077428       0.036437
                                                         5.847736      -0.381480
                                                         2.494033       0.003759
                                                         0.988355      -1.048256
                                                         0.344978       0.855825
                                                         0.099466      -0.176350

                          1       4    3px              10.077428      -3.133913
                                                         5.847736       3.027656
                                                         2.494033       2.353227
                                                         0.988355       0.554184
                                                         0.344978       0.019462
                                                         0.099466      -0.000291
                          1       4    3py              10.077428      -3.133913
                                                         5.847736       3.027656
                                                         2.494033       2.353227
                                                         0.988355       0.554184
                                                         0.344978       0.019462
                                                         0.099466      -0.000291
                          1       4    3pz              10.077428      -3.133913
                                                         5.847736       3.027656
                                                         2.494033       2.353227
                                                         0.988355       0.554184
                                                         0.344978       0.019462
                                                         0.099466      -0.000291

                          1       5    4px              10.077428      -0.112729
                                                         5.847736      -0.114008
                                                         2.494033      -0.347303
                                                         0.988355      -0.110323
                                                         0.344978       0.154096
                                                         0.099466       0.058386
                          1       5    4py              10.077428      -0.112729
                                                         5.847736      -0.114008
                                                         2.494033      -0.347303
                                                         0.988355      -0.110323
                                                         0.344978       0.154096
                                                         0.099466       0.058386
                          1       5    4pz              10.077428      -0.112729
                                                         5.847736      -0.114008
                                                         2.494033      -0.347303
                                                         0.988355      -0.110323
                                                         0.344978       0.154096
                                                         0.099466       0.058386

                          1       6    4dx2             10.077428       8.232726
                                                         5.847736       9.105758
                                                         2.494033       2.849835
                                                         0.988355       0.554319
                                                         0.344978       0.067245
                                                         0.099466       0.001940
                          1       6    4dxy             10.077428      14.259500
                                                         5.847736      15.771636
                                                         2.494033       4.936060
                                                         0.988355       0.960109
                                                         0.344978       0.116472
                                                         0.099466       0.003360
                          1       6    4dxz             10.077428      14.259500
                                                         5.847736      15.771636
                                                         2.494033       4.936060
                                                         0.988355       0.960109
                                                         0.344978       0.116472
                                                         0.099466       0.003360
                          1       6    4dy2             10.077428       8.232726
                                                         5.847736       9.105758
                                                         2.494033       2.849835
                                                         0.988355       0.554319
                                                         0.344978       0.067245
                                                         0.099466       0.001940
                          1       6    4dyz             10.077428      14.259500
                                                         5.847736      15.771636
                                                         2.494033       4.936060
                                                         0.988355       0.960109
                                                         0.344978       0.116472
                                                         0.099466       0.003360
                          1       6    4dz2             10.077428       8.232726
                                                         5.847736       9.105758
                                                         2.494033       2.849835
                                                         0.988355       0.554319
                                                         0.344978       0.067245
                                                         0.099466       0.001940

                          1       7    5dx2             10.077428      -2.715373
                                                         5.847736      -4.020640
                                                         2.494033      -1.397569
                                                         0.988355      -0.076143
                                                         0.344978       0.033435
                                                         0.099466       0.026032
                          1       7    5dxy             10.077428      -4.703164
                                                         5.847736      -6.963952
                                                         2.494033      -2.420661
                                                         0.988355      -0.131883
                                                         0.344978       0.057911
                                                         0.099466       0.045088
                          1       7    5dxz             10.077428      -4.703164
                                                         5.847736      -6.963952
                                                         2.494033      -2.420661
                                                         0.988355      -0.131883
                                                         0.344978       0.057911
                                                         0.099466       0.045088
                          1       7    5dy2             10.077428      -2.715373
                                                         5.847736      -4.020640
                                                         2.494033      -1.397569
                                                         0.988355      -0.076143
                                                         0.344978       0.033435
                                                         0.099466       0.026032
                          1       7    5dyz             10.077428      -4.703164
                                                         5.847736      -6.963952
                                                         2.494033      -2.420661
                                                         0.988355      -0.131883
                                                         0.344978       0.057911
                                                         0.099466       0.045088
                          1       7    5dz2             10.077428      -2.715373
                                                         5.847736      -4.020640
                                                         2.494033      -1.397569
                                                         0.988355      -0.076143
                                                         0.344978       0.033435
                                                         0.099466       0.026032

                          1       8    5fx3             10.077428      -0.467694
                                                         5.847736       0.618100
                                                         2.494033       0.066069
                                                         0.988355       0.262898
                                                         0.344978       0.004720
                                                         0.099466       0.007748
                          1       8    5fx2y            10.077428      -1.045795
                                                         5.847736       1.382114
                                                         2.494033       0.147734
                                                         0.988355       0.587859
                                                         0.344978       0.010555
                                                         0.099466       0.017325
                          1       8    5fx2z            10.077428      -1.045795
                                                         5.847736       1.382114
                                                         2.494033       0.147734
                                                         0.988355       0.587859
                                                         0.344978       0.010555
                                                         0.099466       0.017325
                          1       8    5fxy2            10.077428      -1.045795
                                                         5.847736       1.382114
                                                         2.494033       0.147734
                                                         0.988355       0.587859
                                                         0.344978       0.010555
                                                         0.099466       0.017325
                          1       8    5fxyz            10.077428      -1.811371
                                                         5.847736       2.393892
                                                         2.494033       0.255883
                                                         0.988355       1.018201
                                                         0.344978       0.018282
                                                         0.099466       0.030008
                          1       8    5fxz2            10.077428      -1.045795
                                                         5.847736       1.382114
                                                         2.494033       0.147734
                                                         0.988355       0.587859
                                                         0.344978       0.010555
                                                         0.099466       0.017325
                          1       8    5fy3             10.077428      -0.467694
                                                         5.847736       0.618100
                                                         2.494033       0.066069
                                                         0.988355       0.262898
                                                         0.344978       0.004720
                                                         0.099466       0.007748
                          1       8    5fy2z            10.077428      -1.045795
                                                         5.847736       1.382114
                                                         2.494033       0.147734
                                                         0.988355       0.587859
                                                         0.344978       0.010555
                                                         0.099466       0.017325
                          1       8    5fyz2            10.077428      -1.045795
                                                         5.847736       1.382114
                                                         2.494033       0.147734
                                                         0.988355       0.587859
                                                         0.344978       0.010555
                                                         0.099466       0.017325
                          1       8    5fz3             10.077428      -0.467694
                                                         5.847736       0.618100
                                                         2.494033       0.066069
                                                         0.988355       0.262898
                                                         0.344978       0.004720
                                                         0.099466       0.007748

       Atomic covalent radius [Angstrom]:                                  1.150

       Atomic van der Waals radius [Angstrom]:                             1.630

     GTH Potential information for                                   GTH-PBE-q18

       Description:                       Goedecker-Teter-Hutter pseudopotential
                                           Goedecker et al., PRB 54, 1703 (1996)
                                          Hartwigsen et al., PRB 58, 3641 (1998)
                                                      Krack, TCA 114, 145 (2005)

       Gaussian exponent of the core charge distribution:               4.081633
       Electronic configuration (s p d ...):                           4   6   8

       Parameters of the local part of the GTH pseudopotential:

                          rloc        C1          C2          C3          C4
                        0.350000    2.102166    0.648484

       Parameters of the non-local part of the GTH pseudopotential:

                   l      r(l)      h(i,j,l)

                   0    0.261295    0.622658    9.970227
                                    9.970227  -12.871507
                   1    0.224253  -11.142708   12.429566
                                   12.429566  -14.706861
                   2    0.215348  -12.628146


 MOLECULE KIND INFORMATION


 All atoms are their own molecule, skipping detailed information


 TOTAL NUMBERS AND MAXIMUM NUMBERS

  Total number of            - Atomic kinds:                                   2
                             - Atoms:                                         32
                             - Shell sets:                                    32
                             - Shells:                                       256
                             - Primitive Cartesian functions:                192
                             - Cartesian basis functions:                    992
                             - Spherical basis functions:                    832

  Maximum angular momentum of- Orbital basis functions:                        3
                             - Local part of the GTH pseudopotential:          2
                             - Non-local part of the GTH pseudopotential:      3


 MODULE QUICKSTEP: ATOMIC COORDINATES IN ANGSTROM

   Atom Kind Element         X             Y             Z       Z(eff)     Mass
      1    1 Ni   28      0.876298      0.876298      7.370500  18.0000  58.6934
      2    1 Ni   28      0.876298      4.382298      7.370500  18.0000  58.6934
      3    1 Ni   28      2.629298      2.629298      7.370500  18.0000  58.6934
      4    1 Ni   28      2.629298      6.135298      7.370500  18.0000  58.6934
      5    1 Ni   28      4.382298      0.876298      7.370500  18.0000  58.6934
      6    1 Ni   28      4.382298      4.382298      7.370500  18.0000  58.6934
      7    1 Ni   28      6.135298      2.629298      7.370500  18.0000  58.6934
      8    1 Ni   28      6.135298      6.135298      7.370500  18.0000  58.6934
      9    2 Ni   28      0.876298      2.629298      9.123500  18.0000  58.6934
     10    2 Ni   28      0.876298      6.135298      9.123500  18.0000  58.6934
     11    2 Ni   28      2.629298      0.876298      9.123500  18.0000  58.6934
     12    2 Ni   28      2.629298      4.382298      9.123500  18.0000  58.6934
     13    2 Ni   28      4.382298      2.629298      9.123500  18.0000  58.6934
     14    2 Ni   28      4.382298      6.135298      9.123500  18.0000  58.6934
     15    2 Ni   28      6.135298      0.876298      9.123500  18.0000  58.6934
     16    2 Ni   28      6.135298      4.382298      9.123500  18.0000  58.6934
     17    2 Ni   28      0.876298      0.876298     10.876500  18.0000  58.6934
     18    2 Ni   28      0.876298      4.382298     10.876500  18.0000  58.6934
     19    2 Ni   28      2.629298      2.629298     10.876500  18.0000  58.6934
     20    2 Ni   28      2.629298      6.135298     10.876500  18.0000  58.6934
     21    2 Ni   28      4.382298      0.876298     10.876500  18.0000  58.6934
     22    2 Ni   28      4.382298      4.382298     10.876500  18.0000  58.6934
     23    2 Ni   28      6.135298      2.629298     10.876500  18.0000  58.6934
     24    2 Ni   28      6.135298      6.135298     10.876500  18.0000  58.6934
     25    1 Ni   28      0.876298      2.629298     12.629500  18.0000  58.6934
     26    1 Ni   28      0.876298      6.135298     12.629500  18.0000  58.6934
     27    1 Ni   28      2.629298      0.876298     12.629500  18.0000  58.6934
     28    1 Ni   28      2.629298      4.382298     12.629500  18.0000  58.6934
     29    1 Ni   28      4.382298      2.629298     12.629500  18.0000  58.6934
     30    1 Ni   28      4.382298      6.135298     12.629500  18.0000  58.6934
     31    1 Ni   28      6.135298      0.876298     12.629500  18.0000  58.6934
     32    1 Ni   28      6.135298      4.382298     12.629500  18.0000  58.6934



 SCF PARAMETERS         Density guess:                                    ATOMIC
                        --------------------------------------------------------
                        max_scf:                                             500
                        max_scf_history:                                       0
                        max_diis:                                              4
                        --------------------------------------------------------
                        eps_scf:                                        1.00E-03
                        eps_scf_history:                                0.00E+00
                        eps_diis:                                       1.00E-01
                        eps_eigval:                                     1.00E-05
                        --------------------------------------------------------
                        level_shift [a.u.]:                             0.000000
                        added MOs                                       536  551
                        --------------------------------------------------------
                        Mixing method:                            BROYDEN_MIXING
                                                charge density mixing in g-space
                        --------------------------------------------------------
                        Smear method:                                FERMI_DIRAC
                        Electronic temperature [K]:                       2000.0
                        Electronic temperature [a.u.]:                  6.33E-03
                        Accuracy threshold:                             1.00E-10
                        --------------------------------------------------------
                        No outer SCF

 PW_GRID| Information for grid number                                          1
 PW_GRID| Grid distributed over                                   128 processors
 PW_GRID| Real space group dimensions                                     8   16
 PW_GRID| the grid is blocked:                                               YES
 PW_GRID| Cutoff [a.u.]                                                    300.0
 PW_GRID| spherical cutoff:                                                   NO
 PW_GRID|   Bounds   1            -54      53                Points:         108
 PW_GRID|   Bounds   2            -54      53                Points:         108
 PW_GRID|   Bounds   3           -150     149                Points:         300
 PW_GRID| Volume element (a.u.^3)  0.1896E-02     Volume (a.u.^3)      6635.2971
 PW_GRID| Grid span                                                    FULLSPACE
 PW_GRID|   Distribution                         Average         Max         Min
 PW_GRID|   G-Vectors                            27337.5       28728       25272
 PW_GRID|   G-Rays                                 253.1         266         234
 PW_GRID|   Real Space Points                    27337.5       28728       25272

 PW_GRID| Information for grid number                                          2
 PW_GRID| Number of the reference grid                                         1
 PW_GRID| Grid distributed over                                   128 processors
 PW_GRID| Real space group dimensions                                     8   16
 PW_GRID| the grid is blocked:                                                NO
 PW_GRID| Cutoff [a.u.]                                                    100.0
 PW_GRID| spherical cutoff:                                                   NO
 PW_GRID|   Bounds   1            -30      29                Points:          60
 PW_GRID|   Bounds   2            -30      29                Points:          60
 PW_GRID|   Bounds   3            -90      89                Points:         180
 PW_GRID| Volume element (a.u.^3)  0.1024E-01     Volume (a.u.^3)      6635.2971
 PW_GRID| Grid span                                                    FULLSPACE
 PW_GRID|   Distribution                         Average         Max         Min
 PW_GRID|   G-Vectors                             5062.5       15960           0
 PW_GRID|   G-Rays                                  84.4         266           0
 PW_GRID|   Real Space Points                     5062.5        5760        3780

 PW_GRID| Information for grid number                                          3
 PW_GRID| Number of the reference grid                                         1
 PW_GRID| Grid distributed over                                   128 processors
 PW_GRID| Real space group dimensions                                     8   16
 PW_GRID| the grid is blocked:                                                NO
 PW_GRID| Cutoff [a.u.]                                                     33.3
 PW_GRID| spherical cutoff:                                                   NO
 PW_GRID|   Bounds   1            -18      17                Points:          36
 PW_GRID|   Bounds   2            -18      17                Points:          36
 PW_GRID|   Bounds   3            -50      49                Points:         100
 PW_GRID| Volume element (a.u.^3)  0.5120E-01     Volume (a.u.^3)      6635.2971
 PW_GRID| Grid span                                                    FULLSPACE
 PW_GRID|   Distribution                         Average         Max         Min
 PW_GRID|   G-Vectors                             1012.5        9576           0
 PW_GRID|   G-Rays                                  28.1         266           0
 PW_GRID|   Real Space Points                     1012.5        1500         800

 PW_GRID| Information for grid number                                          4
 PW_GRID| Number of the reference grid                                         1
 PW_GRID| Grid distributed over                                   128 processors
 PW_GRID| Real space group dimensions                                     8   16
 PW_GRID| the grid is blocked:                                                NO
 PW_GRID| Cutoff [a.u.]                                                     11.1
 PW_GRID| spherical cutoff:                                                   NO
 PW_GRID|   Bounds   1            -10       9                Points:          20
 PW_GRID|   Bounds   2            -10       9                Points:          20
 PW_GRID|   Bounds   3            -30      29                Points:          60
 PW_GRID| Volume element (a.u.^3)  0.2765         Volume (a.u.^3)      6635.2971
 PW_GRID| Grid span                                                    FULLSPACE
 PW_GRID|   Distribution                         Average         Max         Min
 PW_GRID|   G-Vectors                              187.5        3800           0
 PW_GRID|   G-Rays                                   9.4         190           0
 PW_GRID|   Real Space Points                      187.5         360         120

 PW_GRID| Information for grid number                                          5
 PW_GRID| Number of the reference grid                                         1
 PW_GRID| Grid distributed over                                   128 processors
 PW_GRID| Real space group dimensions                                     8   16
 PW_GRID| the grid is blocked:                                                NO
 PW_GRID| Cutoff [a.u.]                                                      3.7
 PW_GRID| spherical cutoff:                                                   NO
 PW_GRID|   Bounds   1             -6       5                Points:          12
 PW_GRID|   Bounds   2             -6       5                Points:          12
 PW_GRID|   Bounds   3            -18      17                Points:          36
 PW_GRID| Volume element (a.u.^3)   1.280         Volume (a.u.^3)      6635.2971
 PW_GRID| Grid span                                                    FULLSPACE
 PW_GRID|   Distribution                         Average         Max         Min
 PW_GRID|   G-Vectors                               40.5        1296           0
 PW_GRID|   G-Rays                                   3.4         108           0
 PW_GRID|   Real Space Points                       40.5          72           0

 POISSON| Solver                                                        PERIODIC
 POISSON| Periodicity                                                        XYZ

 RS_GRID| Information for grid number                                          1
 RS_GRID|   Bounds   1            -54      53                Points:         108
 RS_GRID|   Bounds   2            -54      53                Points:         108
 RS_GRID|   Bounds   3           -150     149                Points:         300
 RS_GRID| Real space distribution over                                  8 groups
 RS_GRID| Real space distribution along direction                              2
 RS_GRID| Border size                                                         28
 RS_GRID| Real space distribution over                                 16 groups
 RS_GRID| Real space distribution along direction                              3
 RS_GRID| Border size                                                         28
 RS_GRID|   Distribution                         Average         Max         Min
 RS_GRID|   Planes                                  69.5          70          69
 RS_GRID|   Distribution                         Average         Max         Min
 RS_GRID|   Planes                                  74.8          75          74

 RS_GRID| Information for grid number                                          2
 RS_GRID|   Bounds   1            -30      29                Points:          60
 RS_GRID|   Bounds   2            -30      29                Points:          60
 RS_GRID|   Bounds   3            -90      89                Points:         180
 RS_GRID| Real space fully replicated
 RS_GRID| Group size                                                           1

 RS_GRID| Information for grid number                                          3
 RS_GRID|   Bounds   1            -18      17                Points:          36
 RS_GRID|   Bounds   2            -18      17                Points:          36
 RS_GRID|   Bounds   3            -50      49                Points:         100
 RS_GRID| Real space fully replicated
 RS_GRID| Group size                                                           1

 RS_GRID| Information for grid number                                          4
 RS_GRID|   Bounds   1            -10       9                Points:          20
 RS_GRID|   Bounds   2            -10       9                Points:          20
 RS_GRID|   Bounds   3            -30      29                Points:          60
 RS_GRID| Real space fully replicated
 RS_GRID| Group size                                                           1

 RS_GRID| Information for grid number                                          5
 RS_GRID|   Bounds   1             -6       5                Points:          12
 RS_GRID|   Bounds   2             -6       5                Points:          12
 RS_GRID|   Bounds   3            -18      17                Points:          36
 RS_GRID| Real space fully replicated
 RS_GRID| Group size                                                           1

 Spin 1

 Number of electrons:                                                        295.760
 Number of occupied orbitals:                                                296
 Number of molecular orbitals:                                               832

 Spin 2

 Number of electrons:                                                        280.240
 Number of occupied orbitals:                                                281
 Number of molecular orbitals:                                               832

 Number of orbital functions:                                                832
 Number of independent orbital functions:                                    832

 Extrapolation method: initial_guess

 Atomic guess: The first density matrix is obtained in terms of atomic orbitals
               and electronic configurations assigned to each atomic kind

 Guess for atomic kind: Ni_i

 Electronic structure
    Total number of core electrons                                         10.00
    Total number of valence electrons                                      18.00
    Total number of electrons                                              28.00
    Multiplicity                                                         doublet
    Alpha Electrons
    S   [  1.00  1.00] 1.00  1.00
    P   [  3.00] 3.00
    D      4.30
    Beta Electrons
    S   [  1.00  1.00] 1.00  1.00
    P   [  3.00] 3.00
    D      3.70


 *******************************************************************************
                  Iteration          Convergence                     Energy [au]
 *******************************************************************************
                          1         1.51708                    -167.066118163909
                          2         15.1863                    -156.630620063797
                          3         2.29518                    -168.318250074867
                          4        0.198051                    -168.608832938310
                          5        0.762142E-01                -168.611735578094
                          6        0.143308E-01                -168.612261389358
                          7        0.453828E-02                -168.612313512258
                          8        0.436836E-02                -168.612313369107
                          9        0.696306E-03                -168.612315351147
                         10        0.226261E-02                -168.612315025774
                         11        0.995757E-03                -168.612315268998
                         12        0.170432E-03                -168.612315393602
                         13        0.195344E-03                -168.612315392852
                         14        0.147467E-03                -168.612315396817
                         15        0.185080E-03                -168.612315392680
                         16        0.969041E-04                -168.612315398729
                         17        0.991109E-04                -168.612315398505
                         18        0.433236E-04                -168.612315399326
                         19        0.269198E-04                -168.612315399408
                         20        0.109432E-04                -168.612315399455
                         21        0.443439E-05                -168.612315399480
                         22        0.816741E-05                -168.612315399471
                         23        0.470984E-05                -168.612315399481
                         24        0.245833E-05                -168.612315399483
                         25        0.100766E-05                -168.612315399484
                         26        0.417991E-06                -168.612315399483

 Energy components [Hartree]           Total Energy ::         -168.612315399483
                                        Band Energy ::          -26.569179124340
                                     Kinetic Energy ::           97.305065650248
                                   Potential Energy ::         -265.917381049731
                                      Virial (-V/T) ::            2.732821557364
                                        Core Energy ::         -299.567011526383
                                          XC Energy ::          -16.225783039068
                                     Coulomb Energy ::          147.180479165968
                       Total Pseudopotential Energy ::         -396.958417944166
                       Local Pseudopotential Energy ::         -362.646534962999
                    Nonlocal Pseudopotential Energy ::          -34.311882981167
                                        Confinement ::            0.863407675347

 Orbital energies  State     Spin  L     Occupation   Energy[a.u.]    Energy[eV]

                       1    alpha  0          1.000      -4.170511   -113.485387
                       2    alpha  0          1.000      -0.181081     -4.927469
                       1     beta  0          1.000      -4.143060   -112.738394
                       2     beta  0          1.000      -0.176746     -4.809500

                       1    alpha  1          3.000      -2.576642    -70.114003
                       1     beta  1          3.000      -2.549934    -69.387228

                       1    alpha  2          4.300      -0.325251     -8.850518
                       1     beta  2          3.700      -0.302561     -8.233099


 Total Electron Density at R=0:                                         0.030426

 Guess for atomic kind: Ni_b

 Electronic structure
    Total number of core electrons                                         10.00
    Total number of valence electrons                                      18.00
    Total number of electrons                                              28.00
    Multiplicity                                                         singlet
    Alpha Electrons
    S   [  1.00  1.00] 1.00  1.00
    P   [  3.00] 3.00
    D      4.18
    Beta Electrons
    S   [  1.00  1.00] 1.00  1.00
    P   [  3.00] 3.00
    D      3.81


 *******************************************************************************
                  Iteration          Convergence                     Energy [au]
 *******************************************************************************
                          1         1.51659                    -167.063876272333
                          2         14.7149                    -156.609949726758
                          3         2.20412                    -168.316343040081
                          4        0.177491                    -168.606993959641
                          5        0.637083E-01                -168.609784170377
                          6        0.972189E-02                -168.610185842927
                          7        0.769707E-02                -168.610201062333
                          8        0.583507E-02                -168.610202718824
                          9        0.114408E-02                -168.610206004175
                         10        0.258174E-02                -168.610205631956
                         11        0.904158E-03                -168.610206077488
                         12        0.160104E-03                -168.610206173557
                         13        0.908982E-04                -168.610206173750
                         14        0.831225E-04                -168.610206174749
                         15        0.137542E-03                -168.610206172141
                         16        0.409085E-04                -168.610206175263
                         17        0.240846E-04                -168.610206175287
                         18        0.318959E-04                -168.610206175356
                         19        0.220835E-04                -168.610206175392
                         20        0.415824E-04                -168.610206175294
                         21        0.113306E-04                -168.610206175419
                         22        0.805791E-05                -168.610206175426
                         23        0.751029E-05                -168.610206175427
                         24        0.785523E-05                -168.610206175427
                         25        0.101110E-04                -168.610206175424
                         26        0.181459E-05                -168.610206175434
                         27        0.411661E-06                -168.610206175434

 Energy components [Hartree]           Total Energy ::         -168.610206175434
                                        Band Energy ::          -26.568166130572
                                     Kinetic Energy ::           97.302214988260
                                   Potential Energy ::         -265.912421163694
                                      Virial (-V/T) ::            2.732850646779
                                        Core Energy ::         -299.565345568241
                                          XC Energy ::          -16.223369309045
                                     Coulomb Energy ::          147.178508701852
                       Total Pseudopotential Energy ::         -396.953901010474
                       Local Pseudopotential Energy ::         -362.643512102694
                    Nonlocal Pseudopotential Energy ::          -34.310388907780
                                        Confinement ::            0.863404539737

 Orbital energies  State     Spin  L     Occupation   Energy[a.u.]    Energy[eV]

                       1    alpha  0          1.000      -4.165476   -113.348376
                       2    alpha  0          1.000      -0.180270     -4.905403
                       1     beta  0          1.000      -4.148548   -112.887730
                       2     beta  0          1.000      -0.177597     -4.832666

                       1    alpha  1          3.000      -2.571743    -69.980690
                       1     beta  1          3.000      -2.555273    -69.532514

                       1    alpha  2          4.185      -0.321076     -8.736920
                       1     beta  2          3.815      -0.307083     -8.356164


 Total Electron Density at R=0:                                         0.030432

 Spin 1
 Re-scaling the density matrix to get the right number of electrons for spin 1
                  # Electrons              Trace(P)               Scaling factor
                        295.760             295.760                        1.000

 Spin 2
 Re-scaling the density matrix to get the right number of electrons for spin 2
                  # Electrons              Trace(P)               Scaling factor
                        280.240             280.240                        1.000


 SCF WAVEFUNCTION OPTIMIZATION

  Step     Update method      Time    Convergence         Total energy    Change
  ------------------------------------------------------------------------------
     1 NoMix/Diag. 0.80E-01    1.8     0.87382431     -5426.4072061018 -5.43E+03
     2 Broy./Diag. 0.80E-01    1.5     0.01455025     -5315.6051724795  1.11E+02
     3 Broy./Diag. 0.80E-01    1.6     0.05195217     -5352.1538952293 -3.65E+01
     4 Broy./Diag. 0.80E-01    1.6     0.00345017     -5416.1775451311 -6.40E+01
     5 Broy./Diag. 0.80E-01    1.5     0.01772964     -5414.8854546099  1.29E+00
     6 Broy./Diag. 0.80E-01    1.5     0.00475243     -5418.1259945729 -3.24E+00
     7 Broy./Diag. 0.80E-01    1.5     0.00385534     -5416.6198758042  1.51E+00
     8 Broy./Diag. 0.80E-01    1.5     0.00795000     -5417.0192926272 -3.99E-01
     9 Broy./Diag. 0.80E-01    1.5     0.00126978     -5417.1310795036 -1.12E-01
    10 Broy./Diag. 0.80E-01    1.5     0.00556576     -5417.3572212982 -2.26E-01
    11 Broy./Diag. 0.80E-01    1.5     0.00111771     -5417.1548933008  2.02E-01
    12 Broy./Diag. 0.80E-01    1.5     0.01087584     -5417.5404669283 -3.86E-01
    13 Broy./Diag. 0.80E-01    1.5     0.00339708     -5417.5800644456 -3.96E-02
    14 Broy./Diag. 0.80E-01    1.5     0.00137602     -5417.7401248095 -1.60E-01
[...]
   123 Broy./Diag. 0.80E-01    1.5     0.01179074     -5418.8694669652 -9.11E-01
   124 Broy./Diag. 0.80E-01    1.5     0.00791877     -5417.8184772165  1.05E+00
   125 Broy./Diag. 0.80E-01    1.5     0.02340326     -5417.5476977350  2.71E-01
   126 Broy./Diag. 0.80E-01    1.5     0.00719512     -5417.8383774960 -2.91E-01
   127 Broy./Diag. 0.80E-01    1.5     0.01376472     -5417.5876345446  2.51E-01
   128 Broy./Diag. 0.80E-01    1.5     0.01807225     -5417.7369238877 -1.49E-01
   129 Broy./Diag. 0.80E-01    1.5     0.00486950     -5417.9200147850 -1.83E-01
   130 Broy./Diag. 0.80E-01    1.5     0.01115716     -5417.3887235119  5.31E-01
   131 Broy./Diag. 0.80E-01    1.5     0.01606585     -5417.4882850554 -9.96E-02
   132 Broy./Diag. 0.80E-01    1.5     0.00623024     -5417.4119923221  7.63E-02
   133 Broy./Diag. 0.80E-01    1.5     0.02105693     -5417.1493601062  2.63E-01
   134 Broy./Diag. 0.80E-01    1.5     0.00799169     -5417.1623663026 -1.30E-02
   135 Broy./Diag. 0.80E-01    1.5     0.00953973     -5417.0947336925  6.76E-02
   136 Broy./Diag. 0.80E-01    1.5     0.02732288     -5416.9144118405  1.80E-01
   137 Broy./Diag. 0.80E-01    1.5     0.00924204     -5418.0977007405 -1.18E+00
   138 Broy./Diag. 0.80E-01    1.5     0.00650118     -5417.4361455091  6.62E-01
   139 Broy./Diag. 0.80E-01    1.5     0.00437948     -5417.3559400886  8.02E-02
   140 Broy./Diag. 0.80E-01    1.5     0.00223476     -5417.4243458362 -6.84E-02
   141 Broy./Diag. 0.80E-01    1.5     0.01180452     -5417.4406097794 -1.63E-02
   142 Broy./Diag. 0.80E-01    1.5     0.01233032     -5417.8048573771 -3.64E-01
   143 Broy./Diag. 0.80E-01    1.5     0.00490773     -5418.2613771283 -4.57E-01
   144 Broy./Diag. 0.80E-01    1.5     0.00777342     -5418.4390824283 -1.78E-01
   145 Broy./Diag. 0.80E-01    1.5     0.01428860     -5419.1828305874 -7.44E-01
   146 Broy./Diag. 0.80E-01    1.5     0.00857638     -5418.1028937205  1.08E+00
   147 Broy./Diag. 0.80E-01    1.5     0.00383125     -5418.4376322858 -3.35E-01
   148 Broy./Diag. 0.80E-01    1.5     0.03099182     -5418.3874355869  5.02E-02
   149 Broy./Diag. 0.80E-01    1.5     0.00350400     -5417.7142639585  6.73E-01
   150 Broy./Diag. 0.80E-01    1.5     0.00912930     -5417.9395672039 -2.25E-01
   151 Broy./Diag. 0.80E-01    1.5     0.01057737     -5417.7875158944  1.52E-01
   152 Broy./Diag. 0.80E-01    1.5     0.01769765     -5417.0099803110  7.78E-01
   153 Broy./Diag. 0.80E-01    1.5     0.02786255     -5417.0424397855 -3.25E-02
   154 Broy./Diag. 0.80E-01    1.5     0.01167731     -5417.0748355152 -3.24E-02
   155 Broy./Diag. 0.80E-01    1.5     0.01095873     -5416.7527676119  3.22E-01
   156 Broy./Diag. 0.80E-01    1.5     0.00668342     -5416.8591193543 -1.06E-01
   157 Broy./Diag. 0.80E-01    1.5     0.01977482     -5417.2454577173 -3.86E-01
   158 Broy./Diag. 0.80E-01    1.5     0.01846433     -5418.2513634031 -1.01E+00
   159 Broy./Diag. 0.80E-01    1.5     0.02568574     -5418.0089126947  2.42E-01
   160 Broy./Diag. 0.80E-01    1.5     0.02856745     -5416.5548426186  1.45E+00
   161 Broy./Diag. 0.80E-01    1.5     0.00740705     -5417.2738378103 -7.19E-01
   162 Broy./Diag. 0.80E-01    1.5     0.03865934     -5417.1378854320  1.36E-01
   163 Broy./Diag. 0.80E-01    1.5     0.01304175     -5416.4154163323  7.22E-01
   164 Broy./Diag. 0.80E-01    1.5     0.01073675     -5416.7251724099 -3.10E-01
   165 Broy./Diag. 0.80E-01    1.5     0.01466046     -5417.8261378929 -1.10E+00
   166 Broy./Diag. 0.80E-01    1.5     0.01161354     -5416.8441367605  9.82E-01
   167 Broy./Diag. 0.80E-01    1.5     0.00331939     -5416.7719411108  7.22E-02
   168 Broy./Diag. 0.80E-01    1.5     0.05887679     -5416.8576483485 -8.57E-02
   169 Broy./Diag. 0.80E-01    1.5     0.01313614     -5416.6739272655  1.84E-01
   170 Broy./Diag. 0.80E-01    1.5     0.03129617     -5417.7007708958 -1.03E+00
   171 Broy./Diag. 0.80E-01    1.5     0.03943745     -5416.4074096159  1.29E+00
   172 Broy./Diag. 0.80E-01    1.5     0.05228053     -5416.7027486412 -2.95E-01
   173 Broy./Diag. 0.80E-01    1.5     0.02883045     -5417.5540564649 -8.51E-01
   174 Broy./Diag. 0.80E-01    1.5     0.01793783     -5419.9181472384 -2.36E+00
   175 Broy./Diag. 0.80E-01    1.5     0.01318352     -5419.8689021356  4.92E-02
   176 Broy./Diag. 0.80E-01    1.5     0.02862810     -5419.6699392710  1.99E-01
   177 Broy./Diag. 0.80E-01    1.5     0.02178671     -5420.1219584041 -4.52E-01
   178 Broy./Diag. 0.80E-01    1.5     0.01490369     -5419.3418159736  7.80E-01
   179 Broy./Diag. 0.80E-01    1.5     0.02690356     -5419.5276978484 -1.86E-01
   180 Broy./Diag. 0.80E-01    1.5     0.01982975     -5418.6709857371  8.57E-01
   181 Broy./Diag. 0.80E-01    1.5     0.01697927     -5419.6357445442 -9.65E-01
   182 Broy./Diag. 0.80E-01    1.5     0.02205889     -5420.5366684064 -9.01E-01
   183 Broy./Diag. 0.80E-01    1.5     0.03226467     -5420.6238089253 -8.71E-02
   184 Broy./Diag. 0.80E-01    1.5     0.01240400     -5420.0553661050  5.68E-01
   185 Broy./Diag. 0.80E-01    1.5     0.00976411     -5418.6268370711  1.43E+00
   186 Broy./Diag. 0.80E-01    1.5     0.00934441     -5418.2712527569  3.56E-01
   187 Broy./Diag. 0.80E-01    1.5     0.02600651     -5418.7057005671 -4.34E-01
   188 Broy./Diag. 0.80E-01    1.5     0.01901674     -5418.3232253125  3.82E-01
   189 Broy./Diag. 0.80E-01    1.5     0.01977506     -5418.8797249647 -5.56E-01
   190 Broy./Diag. 0.80E-01    1.5     0.02562535     -5420.1101317424 -1.23E+00
   191 Broy./Diag. 0.80E-01    1.5     0.02854230     -5419.5507071774  5.59E-01
   192 Broy./Diag. 0.80E-01    1.5     0.01545870     -5419.8513133420 -3.01E-01
   193 Broy./Diag. 0.80E-01    1.5     0.02198921     -5419.2685891904  5.83E-01
   194 Broy./Diag. 0.80E-01    1.5     0.01434169     -5419.1757485352  9.28E-02
   195 Broy./Diag. 0.80E-01    1.5     0.01868756     -5418.3138256773  8.62E-01
   196 Broy./Diag. 0.80E-01    1.5     0.03385445     -5418.8018404530 -4.88E-01
   197 Broy./Diag. 0.80E-01    1.5     0.00908923     -5418.1234662125  6.78E-01
   198 Broy./Diag. 0.80E-01    1.5     0.02756337     -5419.1612835034 -1.04E+00
   199 Broy./Diag. 0.80E-01    1.5     0.00376729     -5421.0640231820 -1.90E+00
   200 Broy./Diag. 0.80E-01    1.5     0.01692517     -5420.8663227690  1.98E-01
   201 Broy./Diag. 0.80E-01    1.5     0.03868202     -5421.1850190117 -3.19E-01
   202 Broy./Diag. 0.80E-01    1.5     0.01550789     -5420.9515796168  2.33E-01
   203 Broy./Diag. 0.80E-01    1.5     0.04045756     -5421.3188251126 -3.67E-01
   204 Broy./Diag. 0.80E-01    1.5     0.02305651     -5422.7029805720 -1.38E+00
   205 Broy./Diag. 0.80E-01    1.5     0.01278065     -5422.7037163842 -7.36E-04
   206 Broy./Diag. 0.80E-01    1.5     0.00550373     -5422.4952412096  2.08E-01
   207 Broy./Diag. 0.80E-01    1.5     0.02930240     -5422.6281937148 -1.33E-01
   208 Broy./Diag. 0.80E-01    1.5     0.02570157     -5422.6276875622  5.06E-04
   209 Broy./Diag. 0.80E-01    1.5     0.02109105     -5418.7312125660  3.90E+00
   210 Broy./Diag. 0.80E-01    1.5     0.05470239     -5418.6995827087  3.16E-02
   211 Broy./Diag. 0.80E-01    1.5     0.00831466     -5419.0904379760 -3.91E-01
   212 Broy./Diag. 0.80E-01    1.5     0.02072460     -5418.5208034107  5.70E-01
   213 Broy./Diag. 0.80E-01    1.5     0.00801589     -5417.7776082623  7.43E-01
   214 Broy./Diag. 0.80E-01    1.5     0.01935662     -5418.2850255219 -5.07E-01
   215 Broy./Diag. 0.80E-01    1.5     0.02148010     -5418.3112061206 -2.62E-02
   216 Broy./Diag. 0.80E-01    1.5     0.02261497     -5419.2364522113 -9.25E-01
   217 Broy./Diag. 0.80E-01    1.5     0.01038348     -5419.3733694832 -1.37E-01
   218 Broy./Diag. 0.80E-01    1.5     0.02888798     -5419.8154524118 -4.42E-01
   219 Broy./Diag. 0.80E-01    1.5     0.00546666     -5423.3735061154 -3.56E+00
   220 Broy./Diag. 0.80E-01    1.5     0.05441092     -5424.0630167722 -6.90E-01
   221 Broy./Diag. 0.80E-01    1.5     0.13044350     -5422.4725390326  1.59E+00
   222 Broy./Diag. 0.80E-01    1.5     0.04591198     -5421.5560338410  9.17E-01
   223 Broy./Diag. 0.80E-01    1.5     0.12880995     -5421.7284091844 -1.72E-01
   224 Broy./Diag. 0.80E-01    1.6     0.11181804     -5417.2664023822  4.46E+00
   225 Broy./Diag. 0.80E-01    1.5     0.29951481     -5418.4145307513 -1.15E+00
   226 Broy./Diag. 0.80E-01    1.5     0.02648631     -5410.4199534523  7.99E+00
   227 Broy./Diag. 0.80E-01    1.5     0.04239593     -5413.3464876100 -2.93E+00
   228 Broy./Diag. 0.80E-01    1.5     0.10558607     -5418.1086358891 -4.76E+00
   229 Broy./Diag. 0.80E-01    1.5     0.07096343     -5419.7370729745 -1.63E+00
   230 Broy./Diag. 0.80E-01    1.5     0.07795879     -5422.3671297241 -2.63E+00
   231 Broy./Diag. 0.80E-01    1.5     0.10100902     -5421.8172015655  5.50E-01
   232 Broy./Diag. 0.80E-01    1.5     0.06350760     -5416.1838201658  5.63E+00
   233 Broy./Diag. 0.80E-01    1.5     0.09651599     -5421.5295842107 -5.35E+00
   234 Broy./Diag. 0.80E-01    1.5     0.01674664     -5425.2452176100 -3.72E+00
   235 Broy./Diag. 0.80E-01    1.5     0.04931340     -5424.7511229696  4.94E-01
   236 Broy./Diag. 0.80E-01    1.5     0.10271250     -5424.4059091950  3.45E-01
   237 Broy./Diag. 0.80E-01    1.5     0.02672107     -5416.0072278875  8.40E+00
   238 Broy./Diag. 0.80E-01    1.5     0.02102223     -5421.8103544644 -5.80E+00
   239 Broy./Diag. 0.80E-01    1.5     0.05508282     -5421.1188113867  6.92E-01
   240 Broy./Diag. 0.80E-01    1.5     0.10082701     -5424.1826100168 -3.06E+00
   241 Broy./Diag. 0.80E-01    1.5     0.20499589     -5427.2288450205 -3.05E+00
   242 Broy./Diag. 0.80E-01    1.5     0.07611608     -5422.7653581276  4.46E+00
   243 Broy./Diag. 0.80E-01    1.5     0.06728526     -5419.9297464950  2.84E+00
   244 Broy./Diag. 0.80E-01    1.5     0.13552537     -5418.5008748177  1.43E+00
   245 Broy./Diag. 0.80E-01    1.5     0.17021220     -5423.5756454802 -5.07E+00
   246 Broy./Diag. 0.80E-01    1.5     0.13521106     -5426.7167241436 -3.14E+00
   247 Broy./Diag. 0.80E-01    1.5     0.17254164     -5424.9731142433  1.74E+00
   248 Broy./Diag. 0.80E-01    1.5     0.10020335     -5413.4167598306  1.16E+01
   249 Broy./Diag. 0.80E-01    1.5     0.14580567     -5419.3416502670 -5.92E+00
   250 Broy./Diag. 0.80E-01    1.5     0.04419578     -5423.8759821106 -4.53E+00
   251 Broy./Diag. 0.80E-01    1.5     0.22225857     -5422.4198309095  1.46E+00
   252 Broy./Diag. 0.80E-01    1.5     0.23440581     -5401.9951584982  2.04E+01
   253 Broy./Diag. 0.80E-01    1.5     0.08087206     -5421.3824718188 -1.94E+01
   254 Broy./Diag. 0.80E-01    1.5     0.05608412     -5420.2078901782  1.17E+00
   255 Broy./Diag. 0.80E-01    1.5     0.12453662     -5420.7807360862 -5.73E-01
   256 Broy./Diag. 0.80E-01    1.5     0.15184512     -5421.0277635616 -2.47E-01
   257 Broy./Diag. 0.80E-01    1.5     0.06977350     -5422.3601940230 -1.33E+00
   258 Broy./Diag. 0.80E-01    1.5     0.20207469     -5420.5008826391  1.86E+00
   259 Broy./Diag. 0.80E-01    1.5     0.14091385     -5412.7273339854  7.77E+00
   260 Broy./Diag. 0.80E-01    1.5     0.17189721     -5412.1223394120  6.05E-01
   261 Broy./Diag. 0.80E-01    1.5     0.12553212     -5414.2183607580 -2.10E+00
   262 Broy./Diag. 0.80E-01    1.5     0.43122187     -5412.9021484302  1.32E+00
   263 Broy./Diag. 0.80E-01    1.5     0.17524116     -5396.2024820090  1.67E+01
   264 Broy./Diag. 0.80E-01    1.5     0.09101715     -5411.1576423315 -1.50E+01
   265 Broy./Diag. 0.80E-01    1.5     0.17452492     -5413.0276838674 -1.87E+00
   266 Broy./Diag. 0.80E-01    1.5     0.20077045     -5408.2253912877  4.80E+00
   267 Broy./Diag. 0.80E-01    1.5     0.03624555     -5421.7663410263 -1.35E+01
   268 Broy./Diag. 0.80E-01    1.5     0.01507360     -5421.0512962235  7.15E-01
   269 Broy./Diag. 0.80E-01    1.5     0.01595544     -5421.2466945998 -1.95E-01
   270 Broy./Diag. 0.80E-01    1.5     0.08421158     -5421.1441272702  1.03E-01
   271 Broy./Diag. 0.80E-01    1.5     0.15249887     -5415.3101573959  5.83E+00
   272 Broy./Diag. 0.80E-01    1.5     0.10580560     -5420.0057328029 -4.70E+00
   273 Broy./Diag. 0.80E-01    1.5     0.07557065     -5417.3540777604  2.65E+00
   274 Broy./Diag. 0.80E-01    1.5     0.01215368     -5418.3254487857 -9.71E-01
   275 Broy./Diag. 0.80E-01    1.5     0.28903346     -5420.5697328091 -2.24E+00
   276 Broy./Diag. 0.80E-01    1.5     0.18347796     -5416.9234394380  3.65E+00
   277 Broy./Diag. 0.80E-01    1.5     0.07552850     -5424.8911357933 -7.97E+00
   278 Broy./Diag. 0.80E-01    1.5     0.18272558     -5422.6141434016  2.28E+00
   279 Broy./Diag. 0.80E-01    1.5     0.27492380     -5419.1799994513  3.43E+00
   280 Broy./Diag. 0.80E-01    1.5     0.16068814     -5411.0306917884  8.15E+00
   281 Broy./Diag. 0.80E-01    1.5     0.29700667     -5409.9000535332  1.13E+00
   282 Broy./Diag. 0.80E-01    1.5     0.14237256     -5403.4671447847  6.43E+00
   283 Broy./Diag. 0.80E-01    1.5     0.27175089     -5399.1904252448  4.28E+00
   284 Broy./Diag. 0.80E-01    1.5     0.04309138     -5422.9782136921 -2.38E+01
   285 Broy./Diag. 0.80E-01    1.5     0.15535417     -5420.6748328261  2.30E+00
   286 Broy./Diag. 0.80E-01    1.5     0.22000676     -5422.5602744609 -1.89E+00
   287 Broy./Diag. 0.80E-01    1.5     0.04898599     -5407.6021457455  1.50E+01
   288 Broy./Diag. 0.80E-01    1.5     0.19666881     -5403.8755905595  3.73E+00
   289 Broy./Diag. 0.80E-01    1.5     0.16903033     -5410.8299007118 -6.95E+00
   290 Broy./Diag. 0.80E-01    1.5     0.01931955     -5411.6039416252 -7.74E-01
   291 Broy./Diag. 0.80E-01    1.5     0.09859909     -5412.5921991838 -9.88E-01
   292 Broy./Diag. 0.80E-01    1.5     0.12377800     -5420.8626376695 -8.27E+00
   293 Broy./Diag. 0.80E-01    1.5     0.17235372     -5423.8248513175 -2.96E+00
   294 Broy./Diag. 0.80E-01    1.5     0.23364576     -5420.2089171649  3.62E+00
   295 Broy./Diag. 0.80E-01    1.5     0.13123956     -5423.1268950063 -2.92E+00
   296 Broy./Diag. 0.80E-01    1.5     0.07266224     -5422.0183493808  1.11E+00
   297 Broy./Diag. 0.80E-01    1.5     0.22684198     -5423.5334394972 -1.52E+00
   298 Broy./Diag. 0.80E-01    1.5     0.08487317     -5401.5553999670  2.20E+01
   299 Broy./Diag. 0.80E-01    1.5     0.04091695     -5404.1535244104 -2.60E+00
   300 Broy./Diag. 0.80E-01    1.5     0.04516310     -5404.2044564221 -5.09E-02
   301 Broy./Diag. 0.80E-01    1.5     0.14538703     -5404.7677120961 -5.63E-01
   302 Broy./Diag. 0.80E-01    1.5     0.39418145     -5412.2647862660 -7.50E+00
   303 Broy./Diag. 0.80E-01    1.5     0.44657683     -5422.4543304982 -1.02E+01
   304 Broy./Diag. 0.80E-01    1.5     0.02877416     -5423.1992915466 -7.45E-01
   305 Broy./Diag. 0.80E-01    1.5     0.07884749     -5423.2661358803 -6.68E-02
   306 Broy./Diag. 0.80E-01    1.5     0.17112168     -5423.2233904800  4.27E-02
   307 Broy./Diag. 0.80E-01    1.5     0.04887689     -5423.6430995702 -4.20E-01
   308 Broy./Diag. 0.80E-01    1.5     0.10932394     -5422.2416508235  1.40E+00
   309 Broy./Diag. 0.80E-01    1.5     0.16838188     -5422.0463011399  1.95E-01
   310 Broy./Diag. 0.80E-01    1.5     0.00840791     -5422.3032972694 -2.57E-01
   311 Broy./Diag. 0.80E-01    1.5     0.08933035     -5421.7918022654  5.11E-01
   312 Broy./Diag. 0.80E-01    1.5     0.20680100     -5419.1589939208  2.63E+00
   313 Broy./Diag. 0.80E-01    1.5     0.02417262     -5419.5066525922 -3.48E-01
   314 Broy./Diag. 0.80E-01    1.5     0.04966233     -5419.1910101178  3.16E-01
   315 Broy./Diag. 0.80E-01    1.5     0.29945749     -5417.6346500930  1.56E+00
   316 Broy./Diag. 0.80E-01    1.5     0.10919841     -5421.6630514163 -4.03E+00
   317 Broy./Diag. 0.80E-01    1.5     0.08315637     -5411.7739028539  9.89E+00
   318 Broy./Diag. 0.80E-01    1.5     0.45655683     -5405.9855672289  5.79E+00
   319 Broy./Diag. 0.80E-01    1.5     0.19404368     -5416.7284329665 -1.07E+01
   320 Broy./Diag. 0.80E-01    1.5     0.21440551     -5422.2871777665 -5.56E+00
   321 Broy./Diag. 0.80E-01    1.5     0.21523267     -5420.3900638652  1.90E+00
   322 Broy./Diag. 0.80E-01    1.5     0.28951644     -5419.0342145749  1.36E+00
   323 Broy./Diag. 0.80E-01    1.5     0.27876269     -5420.8070851888 -1.77E+00
   324 Broy./Diag. 0.80E-01    1.5     0.12175338     -5418.5993589822  2.21E+00
   325 Broy./Diag. 0.80E-01    1.5     0.09350276     -5419.8068720610 -1.21E+00
   326 Broy./Diag. 0.80E-01    1.5     0.18699453     -5415.5619769965  4.24E+00
   327 Broy./Diag. 0.80E-01    1.5     0.09096495     -5418.8221219994 -3.26E+00
   328 Broy./Diag. 0.80E-01    1.5     0.07445938     -5418.7938692549  2.83E-02
   329 Broy./Diag. 0.80E-01    1.5     0.09372928     -5411.6636099050  7.13E+00
   330 Broy./Diag. 0.80E-01    1.5     0.06051049     -5411.2561923272  4.07E-01
   331 Broy./Diag. 0.80E-01    1.5     0.16371108     -5418.7174054637 -7.46E+00
   332 Broy./Diag. 0.80E-01    1.5     0.17182973     -5422.5055187441 -3.79E+00
   333 Broy./Diag. 0.80E-01    1.5     0.36332477     -5411.1736370348  1.13E+01
   334 Broy./Diag. 0.80E-01    1.5     0.20239375     -5419.3047709218 -8.13E+00
   335 Broy./Diag. 0.80E-01    1.5     0.03014292     -5410.2543272828  9.05E+00
   336 Broy./Diag. 0.80E-01    1.5     0.60889738     -5411.1146609353 -8.60E-01
   337 Broy./Diag. 0.80E-01    1.5     0.38237934     -5413.2137711349 -2.10E+00
   338 Broy./Diag. 0.80E-01    1.5     0.11991646     -5417.7933647454 -4.58E+00
   339 Broy./Diag. 0.80E-01    1.5     0.00662499     -5418.8776709842 -1.08E+00
   340 Broy./Diag. 0.80E-01    1.5     0.10460058     -5419.2776999306 -4.00E-01
   341 Broy./Diag. 0.80E-01    1.5     0.36600858     -5415.6172792623  3.66E+00
   342 Broy./Diag. 0.80E-01    1.5     0.69757081     -5408.8918147998  6.73E+00
   343 Broy./Diag. 0.80E-01    1.5     0.02589574     -5418.7155239340 -9.82E+00
   344 Broy./Diag. 0.80E-01    1.5     0.24485462     -5419.9635113538 -1.25E+00
   345 Broy./Diag. 0.80E-01    1.5     0.10082444     -5415.8768994144  4.09E+00
   346 Broy./Diag. 0.80E-01    1.5     0.21052173     -5412.1497824028  3.73E+00
   347 Broy./Diag. 0.80E-01    1.5     0.11773760     -5423.9886988468 -1.18E+01
   348 Broy./Diag. 0.80E-01    1.5     0.23530567     -5420.0034499862  3.99E+00
   349 Broy./Diag. 0.80E-01    1.5     0.42917268     -5405.9326528080  1.41E+01
   350 Broy./Diag. 0.80E-01    1.5     0.14887438     -5407.2447959058 -1.31E+00
   351 Broy./Diag. 0.80E-01    1.5     0.04037405     -5406.4328447663  8.12E-01
   352 Broy./Diag. 0.80E-01    1.5     0.52875474     -5405.7456030975  6.87E-01
   353 Broy./Diag. 0.80E-01    1.5     0.17407359     -5413.1396323779 -7.39E+00
   354 Broy./Diag. 0.80E-01    1.5     0.08276228     -5421.6402189488 -8.50E+00
   355 Broy./Diag. 0.80E-01    1.5     0.16512069     -5422.4220872930 -7.82E-01
   356 Broy./Diag. 0.80E-01    1.5     0.14077096     -5418.5109504710  3.91E+00
   357 Broy./Diag. 0.80E-01    1.5     0.21482724     -5421.2938145841 -2.78E+00
   358 Broy./Diag. 0.80E-01    1.5     0.15182321     -5419.5082107603  1.79E+00
   359 Broy./Diag. 0.80E-01    1.5     0.27455856     -5405.1898697181  1.43E+01
   360 Broy./Diag. 0.80E-01    1.5     0.22953525     -5401.8889322696  3.30E+00
   361 Broy./Diag. 0.80E-01    1.5     0.14749345     -5403.5738097907 -1.68E+00
   362 Broy./Diag. 0.80E-01    1.5     0.22923395     -5403.1261220498  4.48E-01
   363 Broy./Diag. 0.80E-01    1.5     0.34681404     -5401.3149230701  1.81E+00
   364 Broy./Diag. 0.80E-01    1.5     0.31032346     -5405.4723813059 -4.16E+00
   365 Broy./Diag. 0.80E-01    1.5     0.19458617     -5407.1943107556 -1.72E+00
   366 Broy./Diag. 0.80E-01    1.5     0.68826041     -5405.0095418942  2.18E+00
   367 Broy./Diag. 0.80E-01    1.5     0.04594178     -5409.5537414134 -4.54E+00
   368 Broy./Diag. 0.80E-01    1.5     0.04959408     -5414.6234685152 -5.07E+00
