 DBCSR| CPU Multiplication driver                                           XSMM
 DBCSR| Multrec recursion limit                                              512
 DBCSR| Multiplication stack size                                           1000
 DBCSR| Maximum elements for images                                    UNLIMITED
 DBCSR| Multiplicative factor virtual images                                   1
 DBCSR| Use multiplication densification                                       T
 DBCSR| Multiplication size stacks                                             3
 DBCSR| Use memory pool for CPU allocation                                     F
 DBCSR| Number of 3D layers                                               SINGLE
 DBCSR| Use MPI memory allocation                                              F
 DBCSR| Use RMA algorithm                                                      F
 DBCSR| Use Communication thread                                               T
 DBCSR| Communication thread load                                             87
 DBCSR| MPI: My node id                                                        0
 DBCSR| MPI: Number of nodes                                                  96
 DBCSR| OMP: Current number of threads                                         1
 DBCSR| OMP: Max number of threads                                             1
 DBCSR| Split modifier for TAS multiplication algorithm                  1.0E+00


  **** **** ******  **  PROGRAM STARTED AT               2023-05-30 16:14:09.355
 ***** ** ***  *** **   PROGRAM STARTED ON                 cn1007.scarf.rl.ac.uk
 **    ****   ******    PROGRAM STARTED BY                             scarf1157
 ***** **    ** ** **   PROGRAM PROCESS ID                                 19761
  **** **  *******  **  PROGRAM STARTED IN /work4/scd/scarf1157/work/masters/xia
                                           ngzhuochun/pt3ni/yike-111/scarf/geo_o
                                           pt/restart/Ni-1_Pt-0_yike_4e-2_4e-3_1
                                           6_100_2000_8-8-1_pbe-d3_tzvp/NOTCONV_
                                           STOPALL_eps-5E-3_4E-3_3E-3_2E-3_1E-3_
                                           5E-4_4E-4_3E-4_2E-4_1E-4_5E-5_4E-5_3E
                                           -5_2E-5_1E-5_5E-6

 CP2K| version string:                 CP2K version 2023.1 (Development Version)
 CP2K| source code revision number:                                  git:dfe538b
 CP2K| cp2kflags: omp libint fftw3 libxc parallel scalapack cosma xsmm spglib si
 CP2K|            rius libvori libbqb libvdwxc
 CP2K| is freely available from                            https://www.cp2k.org/
 CP2K| Program compiled at                          Fri 26 May 21:18:31 BST 2023
 CP2K| Program compiled on                                 cn1108.scarf.rl.ac.uk
 CP2K| Program compiled for                                                local
 CP2K| Data directory path    /work4/scd/scarf1157/work/code/cp2k/scarf21/nelect
 CP2K| Input file name                                                  cp2k.inp

 GLOBAL| Force Environment number                                              1
 GLOBAL| Basis set file name                                    BASIS_MOLOPT_UCL
 GLOBAL| Potential file name                                      GTH_POTENTIALS
 GLOBAL| MM Potential file name                                     MM_POTENTIAL
 GLOBAL| Coordinate file name                                         struct.xyz
 GLOBAL| Method name                                                        CP2K
 GLOBAL| Project name                                                      Pt3Ni
 GLOBAL| Run type                                                        GEO_OPT
 GLOBAL| FFT library                                                       FFTW3
 GLOBAL| Diagonalization library                                       ScaLAPACK
 GLOBAL| DGEMM library                                                      BLAS
 GLOBAL| Orthonormality check for eigenvectors                          DISABLED
 GLOBAL| Matrix multiplication library                                     COSMA
 GLOBAL| All-to-all communication in single precision                          F
 GLOBAL| FFTs using library dependent lengths                                  F
 GLOBAL| Grid backend                                                       AUTO
 GLOBAL| Global print level                                               MEDIUM
 GLOBAL| MPI I/O enabled                                                       T
 GLOBAL| Total number of message passing processes                            96
 GLOBAL| Number of threads for this process                                    1
 GLOBAL| This output is from process                                           0
 GLOBAL| Stack size for threads created by OpenMP (OMP_STACKSIZE)        default
 GLOBAL| CPU model name                         AMD EPYC 7502P 32-Core Processor
 GLOBAL| CPUID                                                              1002
 GLOBAL| Compiled for CPUID                                                    0

 *** HINT in environment.F:884 :: The compiler target flags (generic) used ***
 *** to build this binary cannot exploit all extensions of this CPU model  ***
 *** (x86_avx2). Consider compiler target flags as part of FCFLAGS and     ***
 *** CFLAGS (ARCH file).                                                   ***


 MEMORY| system memory details [Kb]
 MEMORY|                        rank 0           min           max       average
 MEMORY| MemTotal            263896980     263896980     263896984     263896982
 MEMORY| MemFree              82434680      82434680     214834312     166408890
 MEMORY| Buffers                  2440          2440          2564          2522
 MEMORY| Cached              158927108      29003488     158927108      76185676
 MEMORY| Slab                  2002660       1230060       2002660       1496941
 MEMORY| SReclaimable          1354224        674560       1354224        907069
 MEMORY| MemLikelyFree       242718452     242718452     244514924     243504158


 *** Fundamental physical constants (SI units) ***

 *** Literature: B. J. Mohr and B. N. Taylor,
 ***             CODATA recommended values of the fundamental physical
 ***             constants: 2006, Web Version 5.1
 ***             http://physics.nist.gov/constants

 Speed of light in vacuum [m/s]                             2.99792458000000E+08
 Magnetic constant or permeability of vacuum [N/A**2]       1.25663706143592E-06
 Electric constant or permittivity of vacuum [F/m]          8.85418781762039E-12
 Planck constant (h) [J*s]                                  6.62606896000000E-34
 Planck constant (h-bar) [J*s]                              1.05457162825177E-34
 Elementary charge [C]                                      1.60217648700000E-19
 Electron mass [kg]                                         9.10938215000000E-31
 Electron g factor [ ]                                     -2.00231930436220E+00
 Proton mass [kg]                                           1.67262163700000E-27
 Fine-structure constant                                    7.29735253760000E-03
 Rydberg constant [1/m]                                     1.09737315685270E+07
 Avogadro constant [1/mol]                                  6.02214179000000E+23
 Boltzmann constant [J/K]                                   1.38065040000000E-23
 Atomic mass unit [kg]                                      1.66053878200000E-27
 Bohr radius [m]                                            5.29177208590000E-11

 *** Conversion factors ***

 [u] -> [a.u.]                                              1.82288848426455E+03
 [Angstrom] -> [Bohr] = [a.u.]                              1.88972613288564E+00
 [a.u.] = [Bohr] -> [Angstrom]                              5.29177208590000E-01
 [a.u.] -> [s]                                              2.41888432650478E-17
 [a.u.] -> [fs]                                             2.41888432650478E-02
 [a.u.] -> [J]                                              4.35974393937059E-18
 [a.u.] -> [N]                                              8.23872205491840E-08
 [a.u.] -> [K]                                              3.15774647902944E+05
 [a.u.] -> [kJ/mol]                                         2.62549961709828E+03
 [a.u.] -> [kcal/mol]                                       6.27509468713739E+02
 [a.u.] -> [Pa]                                             2.94210107994716E+13
 [a.u.] -> [bar]                                            2.94210107994716E+08
 [a.u.] -> [atm]                                            2.90362800883016E+08
 [a.u.] -> [eV]                                             2.72113838565563E+01
 [a.u.] -> [Hz]                                             6.57968392072181E+15
 [a.u.] -> [1/cm] (wave numbers)                            2.19474631370540E+05
 [a.u./Bohr**2] -> [1/cm]                                   5.14048714338585E+03
 

 CELL_TOP| Volume [angstrom^3]:                                      2213.590108
 CELL_TOP| Vector a [angstrom     9.378     0.000     0.000   |a| =     9.378000
 CELL_TOP| Vector b [angstrom    -4.689     8.122     0.000   |b| =     9.378358
 CELL_TOP| Vector c [angstrom     0.000     0.000    29.062   |c| =    29.061899
 CELL_TOP| Angle (b,c), alpha [degree]:                                90.000000
 CELL_TOP| Angle (a,c), beta  [degree]:                                90.000000
 CELL_TOP| Angle (a,b), gamma [degree]:                               119.998736
 CELL_TOP| Numerically orthorhombic:                                          NO
 CELL_TOP| Periodicity                                                       XYZ

 GENERATE|  Preliminary Number of Bonds generated:                             0
 GENERATE|  Achieved consistency in connectivity generation.

 CELL| Volume [angstrom^3]:                                          2213.590108
 CELL| Vector a [angstrom]:       9.378     0.000     0.000   |a| =     9.378000
 CELL| Vector b [angstrom]:      -4.689     8.122     0.000   |b| =     9.378358
 CELL| Vector c [angstrom]:       0.000     0.000    29.062   |c| =    29.061899
 CELL| Angle (b,c), alpha [degree]:                                    90.000000
 CELL| Angle (a,c), beta  [degree]:                                    90.000000
 CELL| Angle (a,b), gamma [degree]:                                   119.998736
 CELL| Numerically orthorhombic:                                              NO
 CELL| Periodicity                                                           XYZ

 CELL_REF| Volume [angstrom^3]:                                      2213.590108
 CELL_REF| Vector a [angstrom     9.378     0.000     0.000   |a| =     9.378000
 CELL_REF| Vector b [angstrom    -4.689     8.122     0.000   |b| =     9.378358
 CELL_REF| Vector c [angstrom     0.000     0.000    29.062   |c| =    29.061899
 CELL_REF| Angle (b,c), alpha [degree]:                                90.000000
 CELL_REF| Angle (a,c), beta  [degree]:                                90.000000
 CELL_REF| Angle (a,b), gamma [degree]:                               119.998736
 CELL_REF| Numerically orthorhombic:                                          NO
 CELL_REF| Periodicity                                                       XYZ

 *******************************************************************************
                                    Kpoints
 *******************************************************************************
 BRILLOUIN| K-point scheme                                        Monkhorst-Pack
 BRILLOUIN| K-Point grid                                             8    8    1
 BRILLOUIN| Accuracy in Symmetry determination                      0.100000E-05
 BRILLOUIN| K-Point point group symmetrization                               OFF
 BRILLOUIN| Wavefunction type                                            COMPLEX
 BRILLOUIN| List of Kpoints [2 Pi/Bohr]                                       32
 BRILLOUIN| Number           Weight            X              Y              Z
 BRILLOUIN|     1           0.03125       -0.43750       -0.43750        0.00000
 BRILLOUIN|     2           0.03125       -0.43750       -0.31250        0.00000
 BRILLOUIN|     3           0.03125       -0.43750       -0.18750        0.00000
 BRILLOUIN|     4           0.03125       -0.43750       -0.06250        0.00000
 BRILLOUIN|     5           0.03125       -0.43750        0.06250        0.00000
 BRILLOUIN|     6           0.03125       -0.43750        0.18750        0.00000
 BRILLOUIN|     7           0.03125       -0.43750        0.31250        0.00000
 BRILLOUIN|     8           0.03125       -0.43750        0.43750        0.00000
 BRILLOUIN|     9           0.03125       -0.31250       -0.43750        0.00000
 BRILLOUIN|    10           0.03125       -0.31250       -0.31250        0.00000
 BRILLOUIN|    11           0.03125       -0.31250       -0.18750        0.00000
 BRILLOUIN|    12           0.03125       -0.31250       -0.06250        0.00000
 BRILLOUIN|    13           0.03125       -0.31250        0.06250        0.00000
 BRILLOUIN|    14           0.03125       -0.31250        0.18750        0.00000
 BRILLOUIN|    15           0.03125       -0.31250        0.31250        0.00000
 BRILLOUIN|    16           0.03125       -0.31250        0.43750        0.00000
 BRILLOUIN|    17           0.03125       -0.18750       -0.43750        0.00000
 BRILLOUIN|    18           0.03125       -0.18750       -0.31250        0.00000
 BRILLOUIN|    19           0.03125       -0.18750       -0.18750        0.00000
 BRILLOUIN|    20           0.03125       -0.18750       -0.06250        0.00000
 BRILLOUIN|    21           0.03125       -0.18750        0.06250        0.00000
 BRILLOUIN|    22           0.03125       -0.18750        0.18750        0.00000
 BRILLOUIN|    23           0.03125       -0.18750        0.31250        0.00000
 BRILLOUIN|    24           0.03125       -0.18750        0.43750        0.00000
 BRILLOUIN|    25           0.03125       -0.06250       -0.43750        0.00000
 BRILLOUIN|    26           0.03125       -0.06250       -0.31250        0.00000
 BRILLOUIN|    27           0.03125       -0.06250       -0.18750        0.00000
 BRILLOUIN|    28           0.03125       -0.06250       -0.06250        0.00000
 BRILLOUIN|    29           0.03125       -0.06250        0.06250        0.00000
 BRILLOUIN|    30           0.03125       -0.06250        0.18750        0.00000
 BRILLOUIN|    31           0.03125       -0.06250        0.31250        0.00000
 BRILLOUIN|    32           0.03125       -0.06250        0.43750        0.00000
 *******************************************************************************

 *******************************************************************************
 *******************************************************************************
 **                                                                           **
 **     #####                         ##              ##                      **
 **    ##   ##            ##          ##              ##                      **
 **   ##     ##                       ##            ######                    **
 **   ##     ##  ##   ##  ##   #####  ##  ##   ####   ##    #####    #####    **
 **   ##     ##  ##   ##  ##  ##      ## ##   ##      ##   ##   ##  ##   ##   **
 **   ##  ## ##  ##   ##  ##  ##      ####     ###    ##   ######   ######    **
 **    ##  ###   ##   ##  ##  ##      ## ##      ##   ##   ##       ##        **
 **     #######   #####   ##   #####  ##  ##  ####    ##    #####   ##        **
 **           ##                                                    ##        **
 **                                                                           **
 **                                                ... make the atoms dance   **
 **                                                                           **
 **            Copyright (C) by CP2K developers group (2000-2023)             **
 **                      J. Chem. Phys. 152, 194103 (2020)                    **
 **                                                                           **
 *******************************************************************************

 *** WARNING in qs_environment.F:1456 :: Number of electrons will be ***
 *** overwritten by NELEC_ALPHA and NELEC_BETA, multiplicity will be ***
 *** ignored.                                                        ***

 Number of electrons should be                                              1080
 Sum of NELEC_ALPHA and NELEC_BETA is                                   1080.000

 *** WARNING in qs_environment.F:1488 :: NELEC_ALPHA is not an integer, ***
 *** many features will not be supported.                               ***


 *** WARNING in qs_environment.F:1500 :: NELEC_BETA is not an integer, ***
 *** many features will not be supported.                              ***


 *** WARNING in qs_environment.F:1572 :: Kpoints: Different number of MOs   ***
 *** requested. The number of beta MOs will be set to the number alpha MOs. ***


 DFT| Spin unrestricted (spin-polarized) Kohn-Sham calculation               UKS
 DFT| Multiplicity                                                            16
 DFT| Number of spin states                                                    2
 DFT| Charge                                                                   0
 DFT| Self-interaction correction (SIC)                                       NO
 DFT| Cutoffs: density                                              1.000000E-10
 DFT|          gradient                                             1.000000E-10
 DFT|          tau                                                  1.000000E-10
 DFT|          cutoff_smoothing_range                               0.000000E+00
 DFT| XC density smoothing                                                  NONE
 DFT| XC derivatives                                                          PW

 FUNCTIONAL| PBE:
 FUNCTIONAL| J.P.Perdew, K.Burke, M.Ernzerhof, Phys. Rev. Letter, vol. 77, n 18,
 FUNCTIONAL|  pp. 3865-3868, (1996){spin polarized}                             

 vdW POTENTIAL|                                                   Pair Potential
 vdW POTENTIAL|          DFT-D3 (Version 3.1)
 vdW POTENTIAL|          Potential Form: S. Grimme et al, JCP 132: 154104 (2010)
 vdW POTENTIAL|          BJ Damping: S. Grimme et al, JCC 32: 1456 (2011)
 vdW POTENTIAL|          Cutoff Radius [Bohr]:                             20.00
 vdW POTENTIAL|          s6 Scaling Factor:                               1.0000
 vdW POTENTIAL|          a1 Damping Factor:                               0.4289
 vdW POTENTIAL|          s8 Scaling Factor:                               0.7875
 vdW POTENTIAL|          a2 Damping Factor:                               4.4407
 vdW POTENTIAL|          Cutoff for CN calculation:                   0.1000E-05

 QS| Method:                                                                 GPW
 QS| Density plane wave grid type                        NON-SPHERICAL FULLSPACE
 QS| Number of grid levels:                                                    4
 QS| Density cutoff [a.u.]:                                                250.0
 QS| Multi grid cutoff [a.u.]: 1) grid level                               250.0
 QS|                           2) grid level                                83.3
 QS|                           3) grid level                                27.8
 QS|                           4) grid level                                 9.3
 QS| Grid level progression factor:                                          3.0
 QS| Relative density cutoff [a.u.]:                                        30.0
 QS| Interaction thresholds: eps_pgf_orb:                                1.0E-07
 QS|                         eps_filter_matrix:                          0.0E+00
 QS|                         eps_core_charge:                            1.0E-16
 QS|                         eps_rho_gspace:                             1.0E-14
 QS|                         eps_rho_rspace:                             1.0E-14
 QS|                         eps_gvg_rspace:                             1.0E-07
 QS|                         eps_ppl:                                    1.0E-02
 QS|                         eps_ppnl:                                   1.0E-09


 ATOMIC KIND INFORMATION

  1. Atomic kind: Pt_1                                  Number of atoms:      12

     Orbital Basis Set                                        TZVP-MOLOPT-SR-GTH

       Number of orbital shell sets:                                           1
       Number of orbital shells:                                              11
       Number of primitive Cartesian functions:                                6
       Number of Cartesian basis functions:                                   41
       Number of spherical basis functions:                                   35
       Norm type:                                                              2

       Normalised Cartesian orbitals:

                        Set   Shell   Orbital            Exponent    Coefficient

                          1       1    2s                3.630668      -1.842736
                                                         3.114659       5.470062
                                                         1.999981      -2.195810
                                                         0.885340       0.062543
                                                         0.330796       0.293482
                                                         0.105770      -0.135909

                          1       2    3s                3.630668       0.121152
                                                         3.114659       0.282943
                                                         1.999981      -0.222703
                                                         0.885340      -0.152333
                                                         0.330796       0.059018
                                                         0.105770       0.127004

                          1       3    4s                3.630668      -0.844689
                                                         3.114659       0.385245
                                                         1.999981       0.302028
                                                         0.885340       0.710510
                                                         0.330796      -0.143042
                                                         0.105770       0.052286

                          1       4    5s                3.630668       0.158215
                                                         3.114659      -0.021237
                                                         1.999981       0.295915
                                                         0.885340       0.147596
                                                         0.330796       0.178153
                                                         0.105770      -0.001801

                          1       5    3px               3.630668       3.040485
                                                         3.114659      -1.243918
                                                         1.999981      -1.446991
                                                         0.885340      -0.752261
                                                         0.330796      -0.038235
                                                         0.105770      -0.012986
                          1       5    3py               3.630668       3.040485
                                                         3.114659      -1.243918
                                                         1.999981      -1.446991
                                                         0.885340      -0.752261
                                                         0.330796      -0.038235
                                                         0.105770      -0.012986
                          1       5    3pz               3.630668       3.040485
                                                         3.114659      -1.243918
                                                         1.999981      -1.446991
                                                         0.885340      -0.752261
                                                         0.330796      -0.038235
                                                         0.105770      -0.012986

                          1       6    4px               3.630668      -0.682003
                                                         3.114659       0.534307
                                                         1.999981      -0.228673
                                                         0.885340      -0.386548
                                                         0.330796       0.185127
                                                         0.105770       0.061336
                          1       6    4py               3.630668      -0.682003
                                                         3.114659       0.534307
                                                         1.999981      -0.228673
                                                         0.885340      -0.386548
                                                         0.330796       0.185127
                                                         0.105770       0.061336
                          1       6    4pz               3.630668      -0.682003
                                                         3.114659       0.534307
                                                         1.999981      -0.228673
                                                         0.885340      -0.386548
                                                         0.330796       0.185127
                                                         0.105770       0.061336

                          1       7    5px               3.630668       2.991696
                                                         3.114659      -1.856536
                                                         1.999981      -0.041638
                                                         0.885340       0.415739
                                                         0.330796      -0.550872
                                                         0.105770       0.117200
                          1       7    5py               3.630668       2.991696
                                                         3.114659      -1.856536
                                                         1.999981      -0.041638
                                                         0.885340       0.415739
                                                         0.330796      -0.550872
                                                         0.105770       0.117200
                          1       7    5pz               3.630668       2.991696
                                                         3.114659      -1.856536
                                                         1.999981      -0.041638
                                                         0.885340       0.415739
                                                         0.330796      -0.550872
                                                         0.105770       0.117200

                          1       8    4dx2              3.630668      -4.431593
                                                         3.114659       2.994590
                                                         1.999981       1.001089
                                                         0.885340       0.609842
                                                         0.330796       0.095979
                                                         0.105770       0.006573
                          1       8    4dxy              3.630668      -7.675744
                                                         3.114659       5.186782
                                                         1.999981       1.733937
                                                         0.885340       1.056277
                                                         0.330796       0.166241
                                                         0.105770       0.011385
                          1       8    4dxz              3.630668      -7.675744
                                                         3.114659       5.186782
                                                         1.999981       1.733937
                                                         0.885340       1.056277
                                                         0.330796       0.166241
                                                         0.105770       0.011385
                          1       8    4dy2              3.630668      -4.431593
                                                         3.114659       2.994590
                                                         1.999981       1.001089
                                                         0.885340       0.609842
                                                         0.330796       0.095979
                                                         0.105770       0.006573
                          1       8    4dyz              3.630668      -7.675744
                                                         3.114659       5.186782
                                                         1.999981       1.733937
                                                         0.885340       1.056277
                                                         0.330796       0.166241
                                                         0.105770       0.011385
                          1       8    4dz2              3.630668      -4.431593
                                                         3.114659       2.994590
                                                         1.999981       1.001089
                                                         0.885340       0.609842
                                                         0.330796       0.095979
                                                         0.105770       0.006573

                          1       9    5dx2              3.630668       5.386940
                                                         3.114659      -6.252972
                                                         1.999981       1.665659
                                                         0.885340      -0.233657
                                                         0.330796       0.037246
                                                         0.105770       0.029979
                          1       9    5dxy              3.630668       9.330454
                                                         3.114659     -10.830464
                                                         1.999981       2.885005
                                                         0.885340      -0.404706
                                                         0.330796       0.064512
                                                         0.105770       0.051925
                          1       9    5dxz              3.630668       9.330454
                                                         3.114659     -10.830464
                                                         1.999981       2.885005
                                                         0.885340      -0.404706
                                                         0.330796       0.064512
                                                         0.105770       0.051925
                          1       9    5dy2              3.630668       5.386940
                                                         3.114659      -6.252972
                                                         1.999981       1.665659
                                                         0.885340      -0.233657
                                                         0.330796       0.037246
                                                         0.105770       0.029979
                          1       9    5dyz              3.630668       9.330454
                                                         3.114659     -10.830464
                                                         1.999981       2.885005
                                                         0.885340      -0.404706
                                                         0.330796       0.064512
                                                         0.105770       0.051925
                          1       9    5dz2              3.630668       5.386940
                                                         3.114659      -6.252972
                                                         1.999981       1.665659
                                                         0.885340      -0.233657
                                                         0.330796       0.037246
                                                         0.105770       0.029979

                          1      10    6dx2              3.630668       3.739160
                                                         3.114659      -5.999130
                                                         1.999981       3.061528
                                                         0.885340       1.138316
                                                         0.330796      -0.143027
                                                         0.105770      -0.009138
                          1      10    6dxy              3.630668       6.476416
                                                         3.114659     -10.390798
                                                         1.999981       5.302723
                                                         0.885340       1.971621
                                                         0.330796      -0.247730
                                                         0.105770      -0.015827
                          1      10    6dxz              3.630668       6.476416
                                                         3.114659     -10.390798
                                                         1.999981       5.302723
                                                         0.885340       1.971621
                                                         0.330796      -0.247730
                                                         0.105770      -0.015827
                          1      10    6dy2              3.630668       3.739160
                                                         3.114659      -5.999130
                                                         1.999981       3.061528
                                                         0.885340       1.138316
                                                         0.330796      -0.143027
                                                         0.105770      -0.009138
                          1      10    6dyz              3.630668       6.476416
                                                         3.114659     -10.390798
                                                         1.999981       5.302723
                                                         0.885340       1.971621
                                                         0.330796      -0.247730
                                                         0.105770      -0.015827
                          1      10    6dz2              3.630668       3.739160
                                                         3.114659      -5.999130
                                                         1.999981       3.061528
                                                         0.885340       1.138316
                                                         0.330796      -0.143027
                                                         0.105770      -0.009138

                          1      11    5fx3              3.630668       4.675468
                                                         3.114659      -5.283430
                                                         1.999981       1.060779
                                                         0.885340      -0.426082
                                                         0.330796      -0.076594
                                                         0.105770      -0.002294
                          1      11    5fx2y             3.630668      10.454665
                                                         3.114659     -11.814108
                                                         1.999981       2.371973
                                                         0.885340      -0.952748
                                                         0.330796      -0.171270
                                                         0.105770      -0.005130
                          1      11    5fx2z             3.630668      10.454665
                                                         3.114659     -11.814108
                                                         1.999981       2.371973
                                                         0.885340      -0.952748
                                                         0.330796      -0.171270
                                                         0.105770      -0.005130
                          1      11    5fxy2             3.630668      10.454665
                                                         3.114659     -11.814108
                                                         1.999981       2.371973
                                                         0.885340      -0.952748
                                                         0.330796      -0.171270
                                                         0.105770      -0.005130
                          1      11    5fxyz             3.630668      18.108011
                                                         3.114659     -20.462636
                                                         1.999981       4.108378
                                                         0.885340      -1.650208
                                                         0.330796      -0.296649
                                                         0.105770      -0.008885
                          1      11    5fxz2             3.630668      10.454665
                                                         3.114659     -11.814108
                                                         1.999981       2.371973
                                                         0.885340      -0.952748
                                                         0.330796      -0.171270
                                                         0.105770      -0.005130
                          1      11    5fy3              3.630668       4.675468
                                                         3.114659      -5.283430
                                                         1.999981       1.060779
                                                         0.885340      -0.426082
                                                         0.330796      -0.076594
                                                         0.105770      -0.002294
                          1      11    5fy2z             3.630668      10.454665
                                                         3.114659     -11.814108
                                                         1.999981       2.371973
                                                         0.885340      -0.952748
                                                         0.330796      -0.171270
                                                         0.105770      -0.005130
                          1      11    5fyz2             3.630668      10.454665
                                                         3.114659     -11.814108
                                                         1.999981       2.371973
                                                         0.885340      -0.952748
                                                         0.330796      -0.171270
                                                         0.105770      -0.005130
                          1      11    5fz3              3.630668       4.675468
                                                         3.114659      -5.283430
                                                         1.999981       1.060779
                                                         0.885340      -0.426082
                                                         0.330796      -0.076594
                                                         0.105770      -0.002294

       Atomic covalent radius [Angstrom]:                                  1.300

       Atomic van der Waals radius [Angstrom]:                             1.750

     GTH Potential information for                                   GTH-PBE-q18

       Description:                       Goedecker-Teter-Hutter pseudopotential
                                           Goedecker et al., PRB 54, 1703 (1996)
                                          Hartwigsen et al., PRB 58, 3641 (1998)
                                                      Krack, TCA 114, 145 (2005)

       Gaussian exponent of the core charge distribution:               2.000000
       Electronic configuration (s p d ...):                           3   6   9

       Parameters of the local part of the GTH pseudopotential:

                          rloc        C1          C2          C3          C4
                        0.500000    8.814323   -0.292509

       Parameters of the non-local part of the GTH pseudopotential:

                   l      r(l)      h(i,j,l)

                   0    0.298002   -5.968385   24.212900  -13.789679
                                   24.212900  -53.687634   35.604799
                                  -13.789679   35.604799  -28.260433
                   1    0.360172   -6.668659    7.170659    0.766904
                                    7.170659   -7.207661   -1.814825
                                    0.766904   -1.814825    1.289806
                   2    0.340532   -8.589905    9.410122
                                    9.410122  -10.670075

  2. Atomic kind: Ni_1                                  Number of atoms:       6

     Orbital Basis Set                                        TZVP-MOLOPT-SR-GTH

       Number of orbital shell sets:                                           1
       Number of orbital shells:                                              11
       Number of primitive Cartesian functions:                                6
       Number of Cartesian basis functions:                                   41
       Number of spherical basis functions:                                   35
       Norm type:                                                              2

       Normalised Cartesian orbitals:

                        Set   Shell   Orbital            Exponent    Coefficient

                          1       1    2s               10.077428      -0.302595
                                                         5.847736      -0.222193
                                                         2.494033       0.574584
                                                         0.988355       0.318352
                                                         0.344978       0.055413
                                                         0.099466       0.030222

                          1       2    3s               10.077428      -0.109296
                                                         5.847736      -0.204670
                                                         2.494033      -0.072994
                                                         0.988355      -0.407289
                                                         0.344978       0.098705
                                                         0.099466       0.115595

                          1       3    4s               10.077428       0.007401
                                                         5.847736      -0.106218
                                                         2.494033       0.440206
                                                         0.988355      -0.350232
                                                         0.344978       0.574016
                                                         0.099466      -0.113477

                          1       4    5s               10.077428       0.961462
                                                         5.847736       1.735304
                                                         2.494033      -0.914520
                                                         0.988355       0.345896
                                                         0.344978       0.117877
                                                         0.099466       0.026434

                          1       5    3px              10.077428      -3.378145
                                                         5.847736       3.169144
                                                         2.494033       2.066060
                                                         0.988355       0.550774
                                                         0.344978       0.079106
                                                         0.099466      -0.015734
                          1       5    3py              10.077428      -3.378145
                                                         5.847736       3.169144
                                                         2.494033       2.066060
                                                         0.988355       0.550774
                                                         0.344978       0.079106
                                                         0.099466      -0.015734
                          1       5    3pz              10.077428      -3.378145
                                                         5.847736       3.169144
                                                         2.494033       2.066060
                                                         0.988355       0.550774
                                                         0.344978       0.079106
                                                         0.099466      -0.015734

                          1       6    4px              10.077428      -0.644889
                                                         5.847736       0.547979
                                                         2.494033       0.967294
                                                         0.988355       0.073434
                                                         0.344978       0.050765
                                                         0.099466       0.065502
                          1       6    4py              10.077428      -0.644889
                                                         5.847736       0.547979
                                                         2.494033       0.967294
                                                         0.988355       0.073434
                                                         0.344978       0.050765
                                                         0.099466       0.065502
                          1       6    4pz              10.077428      -0.644889
                                                         5.847736       0.547979
                                                         2.494033       0.967294
                                                         0.988355       0.073434
                                                         0.344978       0.050765
                                                         0.099466       0.065502

                          1       7    5px              10.077428       0.764195
                                                         5.847736      -0.031006
                                                         2.494033       1.906720
                                                         0.988355       0.247914
                                                         0.344978      -0.445294
                                                         0.099466       0.005651
                          1       7    5py              10.077428       0.764195
                                                         5.847736      -0.031006
                                                         2.494033       1.906720
                                                         0.988355       0.247914
                                                         0.344978      -0.445294
                                                         0.099466       0.005651
                          1       7    5pz              10.077428       0.764195
                                                         5.847736      -0.031006
                                                         2.494033       1.906720
                                                         0.988355       0.247914
                                                         0.344978      -0.445294
                                                         0.099466       0.005651

                          1       8    4dx2             10.077428       7.796629
                                                         5.847736       8.441930
                                                         2.494033       2.856564
                                                         0.988355       0.427548
                                                         0.344978       0.061999
                                                         0.099466       0.008926
                          1       8    4dxy             10.077428      13.504157
                                                         5.847736      14.621851
                                                         2.494033       4.947714
                                                         0.988355       0.740535
                                                         0.344978       0.107385
                                                         0.099466       0.015461
                          1       8    4dxz             10.077428      13.504157
                                                         5.847736      14.621851
                                                         2.494033       4.947714
                                                         0.988355       0.740535
                                                         0.344978       0.107385
                                                         0.099466       0.015461
                          1       8    4dy2             10.077428       7.796629
                                                         5.847736       8.441930
                                                         2.494033       2.856564
                                                         0.988355       0.427548
                                                         0.344978       0.061999
                                                         0.099466       0.008926
                          1       8    4dyz             10.077428      13.504157
                                                         5.847736      14.621851
                                                         2.494033       4.947714
                                                         0.988355       0.740535
                                                         0.344978       0.107385
                                                         0.099466       0.015461
                          1       8    4dz2             10.077428       7.796629
                                                         5.847736       8.441930
                                                         2.494033       2.856564
                                                         0.988355       0.427548
                                                         0.344978       0.061999
                                                         0.099466       0.008926

                          1       9    5dx2             10.077428      -7.900462
                                                         5.847736      -8.487046
                                                         2.494033      -2.930041
                                                         0.988355      -0.403696
                                                         0.344978       0.088100
                                                         0.099466       0.016065
                          1       9    5dxy             10.077428     -13.684001
                                                         5.847736     -14.699995
                                                         2.494033      -5.074980
                                                         0.988355      -0.699222
                                                         0.344978       0.152594
                                                         0.099466       0.027826
                          1       9    5dxz             10.077428     -13.684001
                                                         5.847736     -14.699995
                                                         2.494033      -5.074980
                                                         0.988355      -0.699222
                                                         0.344978       0.152594
                                                         0.099466       0.027826
                          1       9    5dy2             10.077428      -7.900462
                                                         5.847736      -8.487046
                                                         2.494033      -2.930041
                                                         0.988355      -0.403696
                                                         0.344978       0.088100
                                                         0.099466       0.016065
                          1       9    5dyz             10.077428     -13.684001
                                                         5.847736     -14.699995
                                                         2.494033      -5.074980
                                                         0.988355      -0.699222
                                                         0.344978       0.152594
                                                         0.099466       0.027826
                          1       9    5dz2             10.077428      -7.900462
                                                         5.847736      -8.487046
                                                         2.494033      -2.930041
                                                         0.988355      -0.403696
                                                         0.344978       0.088100
                                                         0.099466       0.016065

                          1      10    6dx2             10.077428       4.546077
                                                         5.847736       1.882393
                                                         2.494033       2.955176
                                                         0.988355      -0.717181
                                                         0.344978      -0.225761
                                                         0.099466       0.017786
                          1      10    6dxy             10.077428       7.874037
                                                         5.847736       3.260400
                                                         2.494033       5.118515
                                                         0.988355      -1.242193
                                                         0.344978      -0.391029
                                                         0.099466       0.030807
                          1      10    6dxz             10.077428       7.874037
                                                         5.847736       3.260400
                                                         2.494033       5.118515
                                                         0.988355      -1.242193
                                                         0.344978      -0.391029
                                                         0.099466       0.030807
                          1      10    6dy2             10.077428       4.546077
                                                         5.847736       1.882393
                                                         2.494033       2.955176
                                                         0.988355      -0.717181
                                                         0.344978      -0.225761
                                                         0.099466       0.017786
                          1      10    6dyz             10.077428       7.874037
                                                         5.847736       3.260400
                                                         2.494033       5.118515
                                                         0.988355      -1.242193
                                                         0.344978      -0.391029
                                                         0.099466       0.030807
                          1      10    6dz2             10.077428       4.546077
                                                         5.847736       1.882393
                                                         2.494033       2.955176
                                                         0.988355      -0.717181
                                                         0.344978      -0.225761
                                                         0.099466       0.017786

                          1      11    5fx3             10.077428      -3.535394
                                                         5.847736       2.986110
                                                         2.494033       0.050340
                                                         0.988355       0.512187
                                                         0.344978       0.078257
                                                         0.099466       0.002668
                          1      11    5fx2y            10.077428      -7.905381
                                                         5.847736       6.677145
                                                         2.494033       0.112563
                                                         0.988355       1.145286
                                                         0.344978       0.174988
                                                         0.099466       0.005967
                          1      11    5fx2z            10.077428      -7.905381
                                                         5.847736       6.677145
                                                         2.494033       0.112563
                                                         0.988355       1.145286
                                                         0.344978       0.174988
                                                         0.099466       0.005967
                          1      11    5fxy2            10.077428      -7.905381
                                                         5.847736       6.677145
                                                         2.494033       0.112563
                                                         0.988355       1.145286
                                                         0.344978       0.174988
                                                         0.099466       0.005967
                          1      11    5fxyz            10.077428     -13.692521
                                                         5.847736      11.565154
                                                         2.494033       0.194965
                                                         0.988355       1.983693
                                                         0.344978       0.303088
                                                         0.099466       0.010334
                          1      11    5fxz2            10.077428      -7.905381
                                                         5.847736       6.677145
                                                         2.494033       0.112563
                                                         0.988355       1.145286
                                                         0.344978       0.174988
                                                         0.099466       0.005967
                          1      11    5fy3             10.077428      -3.535394
                                                         5.847736       2.986110
                                                         2.494033       0.050340
                                                         0.988355       0.512187
                                                         0.344978       0.078257
                                                         0.099466       0.002668
                          1      11    5fy2z            10.077428      -7.905381
                                                         5.847736       6.677145
                                                         2.494033       0.112563
                                                         0.988355       1.145286
                                                         0.344978       0.174988
                                                         0.099466       0.005967
                          1      11    5fyz2            10.077428      -7.905381
                                                         5.847736       6.677145
                                                         2.494033       0.112563
                                                         0.988355       1.145286
                                                         0.344978       0.174988
                                                         0.099466       0.005967
                          1      11    5fz3             10.077428      -3.535394
                                                         5.847736       2.986110
                                                         2.494033       0.050340
                                                         0.988355       0.512187
                                                         0.344978       0.078257
                                                         0.099466       0.002668

       Atomic covalent radius [Angstrom]:                                  1.150

       Atomic van der Waals radius [Angstrom]:                             1.630

     GTH Potential information for                                   GTH-PBE-q18

       Description:                       Goedecker-Teter-Hutter pseudopotential
                                           Goedecker et al., PRB 54, 1703 (1996)
                                          Hartwigsen et al., PRB 58, 3641 (1998)
                                                      Krack, TCA 114, 145 (2005)

       Gaussian exponent of the core charge distribution:               4.081633
       Electronic configuration (s p d ...):                           4   6   8

       Parameters of the local part of the GTH pseudopotential:

                          rloc        C1          C2          C3          C4
                        0.350000    2.102166    0.648484

       Parameters of the non-local part of the GTH pseudopotential:

                   l      r(l)      h(i,j,l)

                   0    0.261295    0.622658    9.970227
                                    9.970227  -12.871507
                   1    0.224253  -11.142708   12.429566
                                   12.429566  -14.706861
                   2    0.215348  -12.628146

  3. Atomic kind: Pt_2                                  Number of atoms:       6

     Orbital Basis Set                                        TZVP-MOLOPT-SR-GTH

       Number of orbital shell sets:                                           1
       Number of orbital shells:                                              11
       Number of primitive Cartesian functions:                                6
       Number of Cartesian basis functions:                                   41
       Number of spherical basis functions:                                   35
       Norm type:                                                              2

       Normalised Cartesian orbitals:

                        Set   Shell   Orbital            Exponent    Coefficient

                          1       1    2s                3.630668      -1.842736
                                                         3.114659       5.470062
                                                         1.999981      -2.195810
                                                         0.885340       0.062543
                                                         0.330796       0.293482
                                                         0.105770      -0.135909

                          1       2    3s                3.630668       0.121152
                                                         3.114659       0.282943
                                                         1.999981      -0.222703
                                                         0.885340      -0.152333
                                                         0.330796       0.059018
                                                         0.105770       0.127004

                          1       3    4s                3.630668      -0.844689
                                                         3.114659       0.385245
                                                         1.999981       0.302028
                                                         0.885340       0.710510
                                                         0.330796      -0.143042
                                                         0.105770       0.052286

                          1       4    5s                3.630668       0.158215
                                                         3.114659      -0.021237
                                                         1.999981       0.295915
                                                         0.885340       0.147596
                                                         0.330796       0.178153
                                                         0.105770      -0.001801

                          1       5    3px               3.630668       3.040485
                                                         3.114659      -1.243918
                                                         1.999981      -1.446991
                                                         0.885340      -0.752261
                                                         0.330796      -0.038235
                                                         0.105770      -0.012986
                          1       5    3py               3.630668       3.040485
                                                         3.114659      -1.243918
                                                         1.999981      -1.446991
                                                         0.885340      -0.752261
                                                         0.330796      -0.038235
                                                         0.105770      -0.012986
                          1       5    3pz               3.630668       3.040485
                                                         3.114659      -1.243918
                                                         1.999981      -1.446991
                                                         0.885340      -0.752261
                                                         0.330796      -0.038235
                                                         0.105770      -0.012986

                          1       6    4px               3.630668      -0.682003
                                                         3.114659       0.534307
                                                         1.999981      -0.228673
                                                         0.885340      -0.386548
                                                         0.330796       0.185127
                                                         0.105770       0.061336
                          1       6    4py               3.630668      -0.682003
                                                         3.114659       0.534307
                                                         1.999981      -0.228673
                                                         0.885340      -0.386548
                                                         0.330796       0.185127
                                                         0.105770       0.061336
                          1       6    4pz               3.630668      -0.682003
                                                         3.114659       0.534307
                                                         1.999981      -0.228673
                                                         0.885340      -0.386548
                                                         0.330796       0.185127
                                                         0.105770       0.061336

                          1       7    5px               3.630668       2.991696
                                                         3.114659      -1.856536
                                                         1.999981      -0.041638
                                                         0.885340       0.415739
                                                         0.330796      -0.550872
                                                         0.105770       0.117200
                          1       7    5py               3.630668       2.991696
                                                         3.114659      -1.856536
                                                         1.999981      -0.041638
                                                         0.885340       0.415739
                                                         0.330796      -0.550872
                                                         0.105770       0.117200
                          1       7    5pz               3.630668       2.991696
                                                         3.114659      -1.856536
                                                         1.999981      -0.041638
                                                         0.885340       0.415739
                                                         0.330796      -0.550872
                                                         0.105770       0.117200

                          1       8    4dx2              3.630668      -4.431593
                                                         3.114659       2.994590
                                                         1.999981       1.001089
                                                         0.885340       0.609842
                                                         0.330796       0.095979
                                                         0.105770       0.006573
                          1       8    4dxy              3.630668      -7.675744
                                                         3.114659       5.186782
                                                         1.999981       1.733937
                                                         0.885340       1.056277
                                                         0.330796       0.166241
                                                         0.105770       0.011385
                          1       8    4dxz              3.630668      -7.675744
                                                         3.114659       5.186782
                                                         1.999981       1.733937
                                                         0.885340       1.056277
                                                         0.330796       0.166241
                                                         0.105770       0.011385
                          1       8    4dy2              3.630668      -4.431593
                                                         3.114659       2.994590
                                                         1.999981       1.001089
                                                         0.885340       0.609842
                                                         0.330796       0.095979
                                                         0.105770       0.006573
                          1       8    4dyz              3.630668      -7.675744
                                                         3.114659       5.186782
                                                         1.999981       1.733937
                                                         0.885340       1.056277
                                                         0.330796       0.166241
                                                         0.105770       0.011385
                          1       8    4dz2              3.630668      -4.431593
                                                         3.114659       2.994590
                                                         1.999981       1.001089
                                                         0.885340       0.609842
                                                         0.330796       0.095979
                                                         0.105770       0.006573

                          1       9    5dx2              3.630668       5.386940
                                                         3.114659      -6.252972
                                                         1.999981       1.665659
                                                         0.885340      -0.233657
                                                         0.330796       0.037246
                                                         0.105770       0.029979
                          1       9    5dxy              3.630668       9.330454
                                                         3.114659     -10.830464
                                                         1.999981       2.885005
                                                         0.885340      -0.404706
                                                         0.330796       0.064512
                                                         0.105770       0.051925
                          1       9    5dxz              3.630668       9.330454
                                                         3.114659     -10.830464
                                                         1.999981       2.885005
                                                         0.885340      -0.404706
                                                         0.330796       0.064512
                                                         0.105770       0.051925
                          1       9    5dy2              3.630668       5.386940
                                                         3.114659      -6.252972
                                                         1.999981       1.665659
                                                         0.885340      -0.233657
                                                         0.330796       0.037246
                                                         0.105770       0.029979
                          1       9    5dyz              3.630668       9.330454
                                                         3.114659     -10.830464
                                                         1.999981       2.885005
                                                         0.885340      -0.404706
                                                         0.330796       0.064512
                                                         0.105770       0.051925
                          1       9    5dz2              3.630668       5.386940
                                                         3.114659      -6.252972
                                                         1.999981       1.665659
                                                         0.885340      -0.233657
                                                         0.330796       0.037246
                                                         0.105770       0.029979

                          1      10    6dx2              3.630668       3.739160
                                                         3.114659      -5.999130
                                                         1.999981       3.061528
                                                         0.885340       1.138316
                                                         0.330796      -0.143027
                                                         0.105770      -0.009138
                          1      10    6dxy              3.630668       6.476416
                                                         3.114659     -10.390798
                                                         1.999981       5.302723
                                                         0.885340       1.971621
                                                         0.330796      -0.247730
                                                         0.105770      -0.015827
                          1      10    6dxz              3.630668       6.476416
                                                         3.114659     -10.390798
                                                         1.999981       5.302723
                                                         0.885340       1.971621
                                                         0.330796      -0.247730
                                                         0.105770      -0.015827
                          1      10    6dy2              3.630668       3.739160
                                                         3.114659      -5.999130
                                                         1.999981       3.061528
                                                         0.885340       1.138316
                                                         0.330796      -0.143027
                                                         0.105770      -0.009138
                          1      10    6dyz              3.630668       6.476416
                                                         3.114659     -10.390798
                                                         1.999981       5.302723
[...]

  Overlap energy of the core charge distribution:               0.00000000522279
  Self energy of the core charge distribution:             -12142.97180818642482
  Core Hamiltonian energy:                                   2926.36272808713829
  Hartree energy:                                            2050.03153399148459
  Exchange-correlation energy:                               -781.28155603686184
  Dispersion energy:                                           -1.19792380645437
  Electronic entropic energy:                                  -0.30193985037966
  Fermi energy:                                                 0.08909779861502

  Total energy:                                             -7949.35890959205244

  outer SCF iter =    4 RMS gradient =   0.15E-02 energy =      -7949.3589095921
     1 NoMix/Diag. 0.40E-01   66.0     0.05768196     -7949.3303469902  2.86E-02
     2 Broy./Diag. 0.40E-01   33.2     0.23707057     -7951.6707616258 -2.34E+00
     3 Broy./Diag. 0.40E-01   33.1     0.19738308     -7949.9410929088  1.73E+00
     4 Broy./Diag. 0.40E-01   33.7     0.01516928     -7948.3721516952  1.57E+00
     5 Broy./Diag. 0.40E-01   33.0     0.01167256     -7949.0782243928 -7.06E-01
     6 Broy./Diag. 0.40E-01   33.5     0.00423552     -7949.0800290426 -1.80E-03
     7 Broy./Diag. 0.40E-01   32.8     0.00124405     -7949.3226804607 -2.43E-01
     8 Broy./Diag. 0.40E-01   33.2     0.00077130     -7949.2948735194  2.78E-02

  *** SCF run converged in     8 steps ***


  Electronic density on regular grids:      -1080.0000000005       -0.0000000005
  Core density on regular grids:             1080.0000000000       -0.0000000000
  Total charge density on r-space grids:       -0.0000000005
  Total charge density g-space grids:          -0.0000000005

  Overlap energy of the core charge distribution:               0.00000000522279
  Self energy of the core charge distribution:             -12142.97180818642482
  Core Hamiltonian energy:                                   2926.42456728955813
  Hartree energy:                                            2050.03268965120969
  Exchange-correlation energy:                               -781.28047813231331
  Dispersion energy:                                           -1.19792380645437
  Electronic entropic energy:                                  -0.30196896965657
  Fermi energy:                                                 0.08907816142159

  Total energy:                                             -7949.29487351937041

  outer SCF iter =    5 RMS gradient =   0.77E-03 energy =      -7949.2948735194
     1 NoMix/Diag. 0.40E-01   66.1     0.01335665     -7949.3305710687 -3.57E-02
     2 Broy./Diag. 0.40E-01  128.9     0.04229858     -7948.1826826721  1.15E+00
     3 Broy./Diag. 0.40E-01   46.1     0.03828986     -7950.2399834055 -2.06E+00
     4 Broy./Diag. 0.40E-01   33.9     0.01017401     -7949.8620274129  3.78E-01
     5 Broy./Diag. 0.40E-01   34.8     0.00145424     -7949.1674617780  6.95E-01
     6 Broy./Diag. 0.40E-01   34.7     0.00050242     -7949.3184928405 -1.51E-01
     7 Broy./Diag. 0.40E-01   34.4     0.00038839     -7949.3189004529 -4.08E-04

  *** SCF run converged in     7 steps ***


  Electronic density on regular grids:      -1080.0000000005       -0.0000000005
  Core density on regular grids:             1080.0000000000       -0.0000000000
  Total charge density on r-space grids:       -0.0000000005
  Total charge density g-space grids:          -0.0000000005

  Overlap energy of the core charge distribution:               0.00000000522279
  Self energy of the core charge distribution:             -12142.97180818642482
  Core Hamiltonian energy:                                   2926.40312382838556
  Hartree energy:                                            2050.03165675484161
  Exchange-correlation energy:                               -781.28203146095439
  Dispersion energy:                                           -1.19792380645437
  Electronic entropic energy:                                  -0.30192134948921
  Fermi energy:                                                 0.08913721526982

  Total energy:                                             -7949.31890045290766

  outer SCF iter =    6 RMS gradient =   0.39E-03 energy =      -7949.3189004529
     1 NoMix/Diag. 0.40E-01   74.0     0.01993577     -7949.3305677999 -1.17E-02
     2 Broy./Diag. 0.40E-01   33.9     0.10989206     -7949.0390875551  2.91E-01
     3 Broy./Diag. 0.40E-01   37.2     0.09213728     -7949.6154618036 -5.76E-01
     4 Broy./Diag. 0.40E-01   38.5     0.00756581     -7949.4774998294  1.38E-01
     5 Broy./Diag. 0.40E-01   38.2     0.00302164     -7949.0234628206  4.54E-01
     6 Broy./Diag. 0.40E-01   47.3     0.00025353     -7949.3161459258 -2.93E-01

  *** SCF run converged in     6 steps ***


  Electronic density on regular grids:      -1080.0000000009       -0.0000000009
  Core density on regular grids:             1080.0000000000       -0.0000000000
  Total charge density on r-space grids:       -0.0000000009
  Total charge density g-space grids:          -0.0000000009

  Overlap energy of the core charge distribution:               0.00000000522279
  Self energy of the core charge distribution:             -12142.97180818642482
  Core Hamiltonian energy:                                   2926.40121624804488
  Hartree energy:                                            2050.03525991140123
  Exchange-correlation energy:                               -781.28107055049827
  Dispersion energy:                                           -1.19792380645437
  Electronic entropic energy:                                  -0.30184049303307
  Fermi energy:                                                 0.08905121713960

  Total energy:                                             -7949.31614592583173

  outer SCF iter =    7 RMS gradient =   0.25E-03 energy =      -7949.3161459258
     1 NoMix/Diag. 0.40E-01   96.1     0.02925569     -7949.3305373226 -1.44E-02
     2 Broy./Diag. 0.40E-01   47.0     0.15489391     -7949.9976447042 -6.67E-01
     3 Broy./Diag. 0.40E-01   77.7     0.13192034     -7949.3346053178  6.63E-01
     4 Broy./Diag. 0.40E-01   52.3     0.00678352     -7949.2519904411  8.26E-02
     5 Broy./Diag. 0.40E-01   47.3     0.00232821     -7949.1703438504  8.16E-02
     6 Broy./Diag. 0.40E-01   44.5     0.00069524     -7949.3715459252 -2.01E-01
     7 Broy./Diag. 0.40E-01   42.7     0.00043984     -7949.3064440591  6.51E-02
     8 Broy./Diag. 0.40E-01   41.5     0.00015730     -7949.3415654753 -3.51E-02

  *** SCF run converged in     8 steps ***


  Electronic density on regular grids:      -1080.0000000006       -0.0000000006
  Core density on regular grids:             1080.0000000000       -0.0000000000
  Total charge density on r-space grids:       -0.0000000006
  Total charge density g-space grids:          -0.0000000006

  Overlap energy of the core charge distribution:               0.00000000522279
  Self energy of the core charge distribution:             -12142.97180818642482
  Core Hamiltonian energy:                                   2926.37999239589772
  Hartree energy:                                            2050.03191788309414
  Exchange-correlation energy:                               -781.28188779828270
  Dispersion energy:                                           -1.19792380645437
  Electronic entropic energy:                                  -0.30186433680730
  Fermi energy:                                                 0.08914290042544

  Total energy:                                             -7949.34156547529801

  outer SCF iter =    8 RMS gradient =   0.16E-03 energy =      -7949.3415654753
     1 NoMix/Diag. 0.40E-01   83.7     0.02148402     -7949.3305638546  1.10E-02
     2 Broy./Diag. 0.40E-01   44.3     0.11956272     -7949.2619170766  6.86E-02
     3 Broy./Diag. 0.40E-01   43.6     0.10002801     -7949.5172531067 -2.55E-01
     4 Broy./Diag. 0.40E-01   41.4     0.00708092     -7949.4039783573  1.13E-01
     5 Broy./Diag. 0.40E-01   40.0     0.00282565     -7949.0604593776  3.44E-01
     6 Broy./Diag. 0.40E-01   39.0     0.00029347     -7949.3239233825 -2.63E-01
     7 Broy./Diag. 0.40E-01   39.5     0.00023826     -7949.3021088074  2.18E-02
     8 Broy./Diag. 0.40E-01   39.8     0.00011597     -7949.3307267277 -2.86E-02

  *** SCF run converged in     8 steps ***


  Electronic density on regular grids:      -1080.0000000015       -0.0000000015
  Core density on regular grids:             1080.0000000000       -0.0000000000
  Total charge density on r-space grids:       -0.0000000015
  Total charge density g-space grids:          -0.0000000015

  Overlap energy of the core charge distribution:               0.00000000522279
  Self energy of the core charge distribution:             -12142.97180818642482
  Core Hamiltonian energy:                                   2926.38868935114306
  Hartree energy:                                            2050.03365837109232
  Exchange-correlation energy:                               -781.28150430994924
  Dispersion energy:                                           -1.19792380645437
  Electronic entropic energy:                                  -0.30184285433046
  Fermi energy:                                                 0.08907621151345

  Total energy:                                             -7949.33072672774051

  outer SCF iter =    9 RMS gradient =   0.12E-03 energy =      -7949.3307267277
     1 NoMix/Diag. 0.40E-01   79.4     0.01414292     -7949.3305775044  1.49E-04
     2 Broy./Diag. 0.40E-01   40.5     0.07955882     -7948.9649744074  3.66E-01
     3 Broy./Diag. 0.40E-01   44.3     0.06689663     -7949.7113682457 -7.46E-01
     4 Broy./Diag. 0.40E-01   44.8     0.00677028     -7949.6144183595  9.69E-02
     5 Broy./Diag. 0.40E-01   46.9     0.00260057     -7949.0753541823  5.39E-01
     6 Broy./Diag. 0.40E-01   52.9     0.00010686     -7949.3318537388 -2.56E-01
     7 Broy./Diag. 0.40E-01   51.7     0.00011094     -7949.3238294949  8.02E-03
     8 Broy./Diag. 0.40E-01   45.8     0.00011113     -7949.3350675649 -1.12E-02
     9 Broy./Diag. 0.40E-01   51.5     0.00007953     -7949.3390139447 -3.95E-03

  *** SCF run converged in     9 steps ***


  Electronic density on regular grids:      -1079.9999999998        0.0000000002
  Core density on regular grids:             1080.0000000000       -0.0000000000
  Total charge density on r-space grids:        0.0000000002
  Total charge density g-space grids:           0.0000000002

  Overlap energy of the core charge distribution:               0.00000000522279
  Self energy of the core charge distribution:             -12142.97180818642482
  Core Hamiltonian energy:                                   2926.38056477424061
  Hartree energy:                                            2050.03376955356543
  Exchange-correlation energy:                               -781.28179035631035
  Dispersion energy:                                           -1.19792380645437
  Electronic entropic energy:                                  -0.30182168662252
  Fermi energy:                                                 0.08911291839781

  Total energy:                                             -7949.33901394466739

  outer SCF iter =   10 RMS gradient =   0.80E-04 energy =      -7949.3390139447
     1 NoMix/Diag. 0.40E-01  100.2     0.00479495     -7949.3305887866  8.43E-03
     2 Broy./Diag. 0.40E-01   45.9     0.02704933     -7949.3063483877  2.42E-02
     3 Broy./Diag. 0.40E-01   50.1     0.02310025     -7949.3604824748 -5.41E-02
     4 Broy./Diag. 0.40E-01   46.6     0.00095002     -7949.3458212477  1.47E-02
     5 Broy./Diag. 0.40E-01   47.4     0.00035077     -7949.3005055536  4.53E-02
     6 Broy./Diag. 0.40E-01   50.7     0.00002529     -7949.3309446969 -3.04E-02

  *** SCF run converged in     6 steps ***


  Electronic density on regular grids:      -1080.0000000011       -0.0000000011
  Core density on regular grids:             1080.0000000000       -0.0000000000
  Total charge density on r-space grids:       -0.0000000011
  Total charge density g-space grids:          -0.0000000011

  Overlap energy of the core charge distribution:               0.00000000522279
  Self energy of the core charge distribution:             -12142.97180818642482
  Core Hamiltonian energy:                                   2926.38864585475176
  Hartree energy:                                            2050.03380057576442
  Exchange-correlation energy:                               -781.28186083081755
  Dispersion energy:                                           -1.19792380645437
  Electronic entropic energy:                                  -0.30179967593556
  Fermi energy:                                                 0.08910091897076

  Total energy:                                             -7949.33094469693970

  outer SCF iter =   11 RMS gradient =   0.25E-04 energy =      -7949.3309446969
     1 NoMix/Diag. 0.40E-01  105.9     0.00844639     -7949.3305858765  3.59E-04
     2 Broy./Diag. 0.40E-01   51.0     0.04914146     -7949.3999809887 -6.94E-02
     3 Broy./Diag. 0.40E-01  102.5     0.04234724     -7949.2833996450  1.17E-01
     4 Broy./Diag. 0.40E-01   62.2     0.00139298     -7949.3243965449 -4.10E-02
     5 Broy./Diag. 0.40E-01   55.5     0.00020987     -7949.3196489821  4.75E-03
     6 Broy./Diag. 0.40E-01   57.3     0.00006126     -7949.3344836756 -1.48E-02
     7 Broy./Diag. 0.40E-01   55.2     0.00005730     -7949.3290492606  5.43E-03
     8 Broy./Diag. 0.40E-01   85.8     0.00002596     -7949.3340187212 -4.97E-03

  *** SCF run converged in     8 steps ***


  Electronic density on regular grids:      -1080.0000000007       -0.0000000007
  Core density on regular grids:             1080.0000000000       -0.0000000000
  Total charge density on r-space grids:       -0.0000000007
  Total charge density g-space grids:          -0.0000000007

  Overlap energy of the core charge distribution:               0.00000000522279
  Self energy of the core charge distribution:             -12142.97180818642482
  Core Hamiltonian energy:                                   2926.38558366308689
  Hartree energy:                                            2050.03384017189137
  Exchange-correlation energy:                               -781.28192054306874
  Dispersion energy:                                           -1.19792380645437
  Electronic entropic energy:                                  -0.30179011161175
  Fermi energy:                                                 0.08911352025408

  Total energy:                                             -7949.33401872123886

  outer SCF iter =   12 RMS gradient =   0.26E-04 energy =      -7949.3340187212
     1 NoMix/Diag. 0.40E-01  171.4     0.00517797     -7949.3305886238  3.43E-03
     2 Broy./Diag. 0.40E-01   58.8     0.02943416     -7949.3082510691  2.23E-02
     3 Broy./Diag. 0.40E-01   55.4     0.02499994     -7949.3478478467 -3.96E-02
     4 Broy./Diag. 0.40E-01   55.2     0.00105351     -7949.3381533789  9.69E-03
     5 Broy./Diag. 0.40E-01   65.3     0.00026692     -7949.3075169866  3.06E-02
     6 Broy./Diag. 0.40E-01   49.0     0.00002160     -7949.3299310700 -2.24E-02

  *** SCF run converged in     6 steps ***


  Electronic density on regular grids:      -1080.0000000012       -0.0000000012
  Core density on regular grids:             1080.0000000000       -0.0000000000
  Total charge density on r-space grids:       -0.0000000012
  Total charge density g-space grids:          -0.0000000012

  Overlap energy of the core charge distribution:               0.00000000522279
  Self energy of the core charge distribution:             -12142.97180818642482
  Core Hamiltonian energy:                                   2926.38964502998033
  Hartree energy:                                            2050.03385944338424
  Exchange-correlation energy:                               -781.28192442213617
  Dispersion energy:                                           -1.19792380645437
  Electronic entropic energy:                                  -0.30178093645112
  Fermi energy:                                                 0.08910208444241

  Total energy:                                             -7949.32993107003585

  outer SCF iter =   13 RMS gradient =   0.22E-04 energy =      -7949.3299310700
     1 NoMix/Diag. 0.40E-01  115.1     0.00678031     -7949.3305873420 -6.56E-04
     2 Broy./Diag. 0.40E-01   47.3     0.03958302     -7949.4086525199 -7.81E-02
     3 Broy./Diag. 0.40E-01   77.4     0.03419940     -7949.2719915696  1.37E-01
     4 Broy./Diag. 0.40E-01   60.7     0.00116283     -7949.3115694931 -3.96E-02
     5 Broy./Diag. 0.40E-01   64.2     0.00017104     -7949.3413380870 -2.98E-02
     6 Broy./Diag. 0.40E-01   67.4     0.00006325     -7949.3243284213  1.70E-02
     7 Broy./Diag. 0.40E-01   64.3     0.00004598     -7949.3297982702 -5.47E-03
     8 Broy./Diag. 0.40E-01   61.9     0.00004179     -7949.3309255702 -1.13E-03
     9 Broy./Diag. 0.40E-01  320.4     0.00001280     -7949.3322515998 -1.33E-03

  *** SCF run converged in     9 steps ***


  Electronic density on regular grids:      -1080.0000000002       -0.0000000002
  Core density on regular grids:             1080.0000000000       -0.0000000000
  Total charge density on r-space grids:       -0.0000000002
  Total charge density g-space grids:          -0.0000000002

  Overlap energy of the core charge distribution:               0.00000000522279
  Self energy of the core charge distribution:             -12142.97180818642482
  Core Hamiltonian energy:                                   2926.38729142169132
  Hartree energy:                                            2050.03391702334739
  Exchange-correlation energy:                               -781.28195048305929
  Dispersion energy:                                           -1.19792380645437
  Electronic entropic energy:                                  -0.30177704518369
  Fermi energy:                                                 0.08910925093760

  Total energy:                                             -7949.33225159984886

  outer SCF iter =   14 RMS gradient =   0.13E-04 energy =      -7949.3322515998
     1 NoMix/Diag. 0.40E-01  390.5     0.00166777     -7949.3305899457  1.66E-03
     2 Broy./Diag. 0.40E-01   83.9     0.00969573     -7949.3153256691  1.53E-02
     3 Broy./Diag. 0.40E-01   81.1     0.00824342     -7949.3458191624 -3.05E-02
     4 Broy./Diag. 0.40E-01  144.7     0.00031275     -7949.3385022711  7.32E-03
     5 Broy./Diag. 0.40E-01  252.4     0.00010989     -7949.3210213429  1.75E-02
     6 Broy./Diag. 0.40E-01   91.4     0.00000925     -7949.3310678582 -1.00E-02

  *** SCF run converged in     6 steps ***


  Electronic density on regular grids:      -1080.0000000010       -0.0000000010
  Core density on regular grids:             1080.0000000000       -0.0000000000
  Total charge density on r-space grids:       -0.0000000010
  Total charge density g-space grids:          -0.0000000010

  Overlap energy of the core charge distribution:               0.00000000522279
  Self energy of the core charge distribution:             -12142.97180818642482
  Core Hamiltonian energy:                                   2926.38865737079914
  Hartree energy:                                            2050.03379008759293
  Exchange-correlation energy:                               -781.28201078531265
  Dispersion energy:                                           -1.19792380645437
  Electronic entropic energy:                                  -0.30177285244301
  Fermi energy:                                                 0.08911109513097

  Total energy:                                             -7949.33106785822929

  outer SCF iter =   15 RMS gradient =   0.92E-05 energy =      -7949.3310678582
