 DBCSR| CPU Multiplication driver                                           XSMM (U)
 DBCSR| Multrec recursion limit                                              512 (U)
 DBCSR| Multiplication stack size                                           1000 (D)
 DBCSR| Maximum elements for images                                    UNLIMITED (U)
 DBCSR| Multiplicative factor virtual images                                   1 (U)
 DBCSR| Use multiplication densification                                       T (D)
 DBCSR| Multiplication size stacks                                             3 (U)
 DBCSR| Use memory pool for CPU allocation                                     F (U)
 DBCSR| Number of 3D layers                                               SINGLE (U)
 DBCSR| Use MPI memory allocation                                              F (U)
 DBCSR| Use RMA algorithm                                                      F (U)
 DBCSR| Use Communication thread                                               T (U)
 DBCSR| Communication thread load                                             87 (D)
 DBCSR| MPI: My process id                                                     0
 DBCSR| MPI: Number of processes                                             128
 DBCSR| OMP: Current number of threads                                         1
 DBCSR| OMP: Max number of threads                                             1
 DBCSR| Split modifier for TAS multiplication algorithm                  1.0E+00 (U)


  **** **** ******  **  PROGRAM STARTED AT               2023-02-06 17:11:21.523
 ***** ** ***  *** **   PROGRAM STARTED ON                             nid004539
 **    ****   ******    PROGRAM STARTED BY                                cahart
 ***** **    ** ** **   PROGRAM PROCESS ID                                 31695
  **** **  *******  **  PROGRAM STARTED IN /mnt/lustre/a2fs-work2/work/e05/e05/c
                                           ahart/postdoc/masters/ni/archer2/bulk
                                           /optimise/multiplicity-65_mos-30_temp
                                           -300/search/1.0E-2_5.0E-01

 CP2K| version string:                                       CP2K version 2023.1
 CP2K| source code revision number:                                  git:b888bd8
 CP2K| cp2kflags: omp libint fftw3 libxc elpa parallel scalapack xsmm plumed2 mk
 CP2K|            l
 CP2K| is freely available from                            https://www.cp2k.org/
 CP2K| Program compiled at                          Tue Jan 24 12:43:13 GMT 2023
 CP2K| Program compiled on                                                  ln03
 CP2K| Program compiled for                                              ARCHER2
 CP2K| Data directory path    /mnt/lustre/a2fs-work1/work/y07/shared/apps/core/c
 CP2K| Input file name                                                  cp2k.inp

 GLOBAL| Force Environment number                                              1
 GLOBAL| Basis set file name                                        BASIS_MOLOPT
 GLOBAL| Potential file name                                      GTH_POTENTIALS
 GLOBAL| MM Potential file name                                     MM_POTENTIAL
 GLOBAL| Coordinate file name                                      __STD_INPUT__
 GLOBAL| Method name                                                        CP2K
 GLOBAL| Project name                                                    Ni_bulk
 GLOBAL| Run type                                                         ENERGY
 GLOBAL| FFT library                                                       FFTW3
 GLOBAL| Diagonalization library                                            ELPA
 GLOBAL| DGEMM library                                                      BLAS
 GLOBAL| Minimum number of eigenvectors for ELPA usage                        16
 GLOBAL| Orthonormality check for eigenvectors                          DISABLED
 GLOBAL| Matrix multiplication library                                 ScaLAPACK
 GLOBAL| All-to-all communication in single precision                          F
 GLOBAL| FFTs using library dependent lengths                                  F
 GLOBAL| Grid backend                                                       AUTO
 GLOBAL| Global print level                                               MEDIUM
 GLOBAL| MPI I/O enabled                                                       T
 GLOBAL| Total number of message passing processes                           128
 GLOBAL| Number of threads for this process                                    1
 GLOBAL| This output is from process                                           0
 GLOBAL| Stack size for threads created by OpenMP (OMP_STACKSIZE)        default
 GLOBAL| CPU model name                          AMD EPYC 7742 64-Core Processor
 GLOBAL| CPUID                                                              1002

 MEMORY| system memory details [Kb]
 MEMORY|                        rank 0           min           max       average
 MEMORY| MemTotal            263528084     263528084     263528084     263528084
 MEMORY| MemFree             241303428     241303428     241303428     241303428
 MEMORY| Buffers                 23148         23148         23148         23148
 MEMORY| Cached                1111612       1111612       1111612       1111612
 MEMORY| Slab                  1714372       1714372       1714372       1714372
 MEMORY| SReclaimable            90316         90316         90316         90316
 MEMORY| MemLikelyFree       242528504     242528504     242528504     242528504


 *** Fundamental physical constants (SI units) ***

 *** Literature: B. J. Mohr and B. N. Taylor,
 ***             CODATA recommended values of the fundamental physical
 ***             constants: 2006, Web Version 5.1
 ***             http://physics.nist.gov/constants

 Speed of light in vacuum [m/s]                             2.99792458000000E+08
 Magnetic constant or permeability of vacuum [N/A**2]       1.25663706143592E-06
 Electric constant or permittivity of vacuum [F/m]          8.85418781762039E-12
 Planck constant (h) [J*s]                                  6.62606896000000E-34
 Planck constant (h-bar) [J*s]                              1.05457162825177E-34
 Elementary charge [C]                                      1.60217648700000E-19
 Electron mass [kg]                                         9.10938215000000E-31
 Electron g factor [ ]                                     -2.00231930436220E+00
 Proton mass [kg]                                           1.67262163700000E-27
 Fine-structure constant                                    7.29735253760000E-03
 Rydberg constant [1/m]                                     1.09737315685270E+07
 Avogadro constant [1/mol]                                  6.02214179000000E+23
 Boltzmann constant [J/K]                                   1.38065040000000E-23
 Atomic mass unit [kg]                                      1.66053878200000E-27
 Bohr radius [m]                                            5.29177208590000E-11

 *** Conversion factors ***

 [u] -> [a.u.]                                              1.82288848426455E+03
 [Angstrom] -> [Bohr] = [a.u.]                              1.88972613288564E+00
 [a.u.] = [Bohr] -> [Angstrom]                              5.29177208590000E-01
 [a.u.] -> [s]                                              2.41888432650478E-17
 [a.u.] -> [fs]                                             2.41888432650478E-02
 [a.u.] -> [J]                                              4.35974393937059E-18
 [a.u.] -> [N]                                              8.23872205491840E-08
 [a.u.] -> [K]                                              3.15774647902944E+05
 [a.u.] -> [kJ/mol]                                         2.62549961709828E+03
 [a.u.] -> [kcal/mol]                                       6.27509468713739E+02
 [a.u.] -> [Pa]                                             2.94210107994716E+13
 [a.u.] -> [bar]                                            2.94210107994716E+08
 [a.u.] -> [atm]                                            2.90362800883016E+08
 [a.u.] -> [eV]                                             2.72113838565563E+01
 [a.u.] -> [Hz]                                             6.57968392072181E+15
 [a.u.] -> [1/cm] (wave numbers)                            2.19474631370540E+05
 [a.u./Bohr**2] -> [1/cm]                                   5.14048714338585E+03
 

 CELL_TOP| Volume [angstrom^3]:                                       344.707437
 CELL_TOP| Vector a [angstrom     7.012     0.000     0.000   |a| =     7.011596
 CELL_TOP| Vector b [angstrom     0.000     7.012     0.000   |b| =     7.011596
 CELL_TOP| Vector c [angstrom     0.000     0.000     7.012   |c| =     7.011596
 CELL_TOP| Angle (b,c), alpha [degree]:                                90.000000
 CELL_TOP| Angle (a,c), beta  [degree]:                                90.000000
 CELL_TOP| Angle (a,b), gamma [degree]:                                90.000000
 CELL_TOP| Numerically orthorhombic:                                         YES
 CELL_TOP| Periodicity                                                       XYZ

 CELL_UC| Volume [angstrom^3]:                                         43.088430
 CELL_UC| Vector a [angstrom]     3.506     0.000     0.000   |a| =     3.505798
 CELL_UC| Vector b [angstrom]     0.000     3.506     0.000   |b| =     3.505798
 CELL_UC| Vector c [angstrom]     0.000     0.000     3.506   |c| =     3.505798
 CELL_UC| Angle (b,c), alpha [degree]:                                 90.000000
 CELL_UC| Angle (a,c), beta  [degree]:                                 90.000000
 CELL_UC| Angle (a,b), gamma [degree]:                                 90.000000
 CELL_UC| Numerically orthorhombic:                                          YES
 CELL_UC| Periodicity                                                        XYZ

 GENERATE|  Preliminary Number of Bonds generated:                             0
 GENERATE|  Achieved consistency in connectivity generation.

 CELL| Volume [angstrom^3]:                                           344.707437
 CELL| Vector a [angstrom]:       7.012     0.000     0.000   |a| =     7.011596
 CELL| Vector b [angstrom]:       0.000     7.012     0.000   |b| =     7.011596
 CELL| Vector c [angstrom]:       0.000     0.000     7.012   |c| =     7.011596
 CELL| Angle (b,c), alpha [degree]:                                    90.000000
 CELL| Angle (a,c), beta  [degree]:                                    90.000000
 CELL| Angle (a,b), gamma [degree]:                                    90.000000
 CELL| Numerically orthorhombic:                                             YES
 CELL| Periodicity                                                           XYZ

 CELL_REF| Volume [angstrom^3]:                                       344.707437
 CELL_REF| Vector a [angstrom     7.012     0.000     0.000   |a| =     7.011596
 CELL_REF| Vector b [angstrom     0.000     7.012     0.000   |b| =     7.011596
 CELL_REF| Vector c [angstrom     0.000     0.000     7.012   |c| =     7.011596
 CELL_REF| Angle (b,c), alpha [degree]:                                90.000000
 CELL_REF| Angle (a,c), beta  [degree]:                                90.000000
 CELL_REF| Angle (a,b), gamma [degree]:                                90.000000
 CELL_REF| Numerically orthorhombic:                                         YES
 CELL_REF| Periodicity                                                       XYZ

 *******************************************************************************
 *******************************************************************************
 **                                                                           **
 **     #####                         ##              ##                      **
 **    ##   ##            ##          ##              ##                      **
 **   ##     ##                       ##            ######                    **
 **   ##     ##  ##   ##  ##   #####  ##  ##   ####   ##    #####    #####    **
 **   ##     ##  ##   ##  ##  ##      ## ##   ##      ##   ##   ##  ##   ##   **
 **   ##  ## ##  ##   ##  ##  ##      ####     ###    ##   ######   ######    **
 **    ##  ###   ##   ##  ##  ##      ## ##      ##   ##   ##       ##        **
 **     #######   #####   ##   #####  ##  ##  ####    ##    #####   ##        **
 **           ##                                                    ##        **
 **                                                                           **
 **                                                ... make the atoms dance   **
 **                                                                           **
 **            Copyright (C) by CP2K developers group (2000-2022)             **
 **                      J. Chem. Phys. 152, 194103 (2020)                    **
 **                                                                           **
 *******************************************************************************

 DFT| Spin unrestricted (spin-polarized) Kohn-Sham calculation               UKS
 DFT| Multiplicity                                                            65
 DFT| Number of spin states                                                    2
 DFT| Charge                                                                   0
 DFT| Self-interaction correction (SIC)                                       NO
 DFT| Cutoffs: density                                              1.000000E-10
 DFT|          gradient                                             1.000000E-10
 DFT|          tau                                                  1.000000E-10
 DFT|          cutoff_smoothing_range                               0.000000E+00
 DFT| XC density smoothing                                                  NONE
 DFT| XC derivatives                                                          PW

 FUNCTIONAL| PBE:
 FUNCTIONAL| J.P.Perdew, K.Burke, M.Ernzerhof, Phys. Rev. Letter, vol. 77, n 18,
 FUNCTIONAL|  pp. 3865-3868, (1996){spin polarized}                             


 QS| Method:                                                                 GPW
 QS| Density plane wave grid type                        NON-SPHERICAL FULLSPACE
 QS| Number of grid levels:                                                    5
 QS| Density cutoff [a.u.]:                                                300.0
 QS| Multi grid cutoff [a.u.]: 1) grid level                               300.0
 QS|                           2) grid level                               100.0
 QS|                           3) grid level                                33.3
 QS|                           4) grid level                                11.1
 QS|                           5) grid level                                 3.7
 QS| Grid level progression factor:                                          3.0
 QS| Relative density cutoff [a.u.]:                                        30.0
 QS| Interaction thresholds: eps_pgf_orb:                                1.0E-06
 QS|                         eps_filter_matrix:                          0.0E+00
 QS|                         eps_core_charge:                            1.0E-14
 QS|                         eps_rho_gspace:                             1.0E-12
 QS|                         eps_rho_rspace:                             1.0E-12
 QS|                         eps_gvg_rspace:                             1.0E-06
 QS|                         eps_ppl:                                    1.0E-02
 QS|                         eps_ppnl:                                   1.0E-08


 ATOMIC KIND INFORMATION

  1. Atomic kind: Ni                                    Number of atoms:      32

     Orbital Basis Set                                        DZVP-MOLOPT-SR-GTH

       Number of orbital shell sets:                                           1
       Number of orbital shells:                                               8
       Number of primitive Cartesian functions:                                6
       Number of Cartesian basis functions:                                   31
       Number of spherical basis functions:                                   26
       Norm type:                                                              2

       Normalised Cartesian orbitals:

                        Set   Shell   Orbital            Exponent    Coefficient

                          1       1    2s               10.077428      -0.684558
                                                         5.847736      -0.844524
                                                         2.494033       1.088856
                                                         0.988355       0.395503
                                                         0.344978       0.010224
                                                         0.099466      -0.003250

                          1       2    3s               10.077428       0.096747
                                                         5.847736       0.162504
                                                         2.494033      -0.297192
                                                         0.988355      -0.319752
                                                         0.344978       0.088318
                                                         0.099466       0.118587

                          1       3    4s               10.077428       0.036437
                                                         5.847736      -0.381480
                                                         2.494033       0.003759
                                                         0.988355      -1.048256
                                                         0.344978       0.855825
                                                         0.099466      -0.176350

                          1       4    3px              10.077428      -3.133913
                                                         5.847736       3.027656
                                                         2.494033       2.353227
                                                         0.988355       0.554184
                                                         0.344978       0.019462
                                                         0.099466      -0.000291
                          1       4    3py              10.077428      -3.133913
                                                         5.847736       3.027656
                                                         2.494033       2.353227
                                                         0.988355       0.554184
                                                         0.344978       0.019462
                                                         0.099466      -0.000291
                          1       4    3pz              10.077428      -3.133913
                                                         5.847736       3.027656
                                                         2.494033       2.353227
                                                         0.988355       0.554184
                                                         0.344978       0.019462
                                                         0.099466      -0.000291

                          1       5    4px              10.077428      -0.112729
                                                         5.847736      -0.114008
                                                         2.494033      -0.347303
                                                         0.988355      -0.110323
                                                         0.344978       0.154096
                                                         0.099466       0.058386
                          1       5    4py              10.077428      -0.112729
                                                         5.847736      -0.114008
                                                         2.494033      -0.347303
                                                         0.988355      -0.110323
                                                         0.344978       0.154096
                                                         0.099466       0.058386
                          1       5    4pz              10.077428      -0.112729
                                                         5.847736      -0.114008
                                                         2.494033      -0.347303
                                                         0.988355      -0.110323
                                                         0.344978       0.154096
                                                         0.099466       0.058386

                          1       6    4dx2             10.077428       8.232726
                                                         5.847736       9.105758
                                                         2.494033       2.849835
                                                         0.988355       0.554319
                                                         0.344978       0.067245
                                                         0.099466       0.001940
                          1       6    4dxy             10.077428      14.259500
                                                         5.847736      15.771636
                                                         2.494033       4.936060
                                                         0.988355       0.960109
                                                         0.344978       0.116472
                                                         0.099466       0.003360
                          1       6    4dxz             10.077428      14.259500
                                                         5.847736      15.771636
                                                         2.494033       4.936060
                                                         0.988355       0.960109
                                                         0.344978       0.116472
                                                         0.099466       0.003360
                          1       6    4dy2             10.077428       8.232726
                                                         5.847736       9.105758
                                                         2.494033       2.849835
                                                         0.988355       0.554319
                                                         0.344978       0.067245
                                                         0.099466       0.001940
                          1       6    4dyz             10.077428      14.259500
                                                         5.847736      15.771636
                                                         2.494033       4.936060
                                                         0.988355       0.960109
                                                         0.344978       0.116472
                                                         0.099466       0.003360
                          1       6    4dz2             10.077428       8.232726
                                                         5.847736       9.105758
                                                         2.494033       2.849835
                                                         0.988355       0.554319
                                                         0.344978       0.067245
                                                         0.099466       0.001940

                          1       7    5dx2             10.077428      -2.715373
                                                         5.847736      -4.020640
                                                         2.494033      -1.397569
                                                         0.988355      -0.076143
                                                         0.344978       0.033435
                                                         0.099466       0.026032
                          1       7    5dxy             10.077428      -4.703164
                                                         5.847736      -6.963952
                                                         2.494033      -2.420661
                                                         0.988355      -0.131883
                                                         0.344978       0.057911
                                                         0.099466       0.045088
                          1       7    5dxz             10.077428      -4.703164
                                                         5.847736      -6.963952
                                                         2.494033      -2.420661
                                                         0.988355      -0.131883
                                                         0.344978       0.057911
                                                         0.099466       0.045088
                          1       7    5dy2             10.077428      -2.715373
                                                         5.847736      -4.020640
                                                         2.494033      -1.397569
                                                         0.988355      -0.076143
                                                         0.344978       0.033435
                                                         0.099466       0.026032
                          1       7    5dyz             10.077428      -4.703164
                                                         5.847736      -6.963952
                                                         2.494033      -2.420661
                                                         0.988355      -0.131883
                                                         0.344978       0.057911
                                                         0.099466       0.045088
                          1       7    5dz2             10.077428      -2.715373
                                                         5.847736      -4.020640
                                                         2.494033      -1.397569
                                                         0.988355      -0.076143
                                                         0.344978       0.033435
                                                         0.099466       0.026032

                          1       8    5fx3             10.077428      -0.467694
                                                         5.847736       0.618100
                                                         2.494033       0.066069
                                                         0.988355       0.262898
                                                         0.344978       0.004720
                                                         0.099466       0.007748
                          1       8    5fx2y            10.077428      -1.045795
                                                         5.847736       1.382114
                                                         2.494033       0.147734
                                                         0.988355       0.587859
                                                         0.344978       0.010555
                                                         0.099466       0.017325
                          1       8    5fx2z            10.077428      -1.045795
                                                         5.847736       1.382114
                                                         2.494033       0.147734
                                                         0.988355       0.587859
                                                         0.344978       0.010555
                                                         0.099466       0.017325
                          1       8    5fxy2            10.077428      -1.045795
                                                         5.847736       1.382114
                                                         2.494033       0.147734
                                                         0.988355       0.587859
                                                         0.344978       0.010555
                                                         0.099466       0.017325
                          1       8    5fxyz            10.077428      -1.811371
                                                         5.847736       2.393892
                                                         2.494033       0.255883
                                                         0.988355       1.018201
                                                         0.344978       0.018282
                                                         0.099466       0.030008
                          1       8    5fxz2            10.077428      -1.045795
                                                         5.847736       1.382114
                                                         2.494033       0.147734
                                                         0.988355       0.587859
                                                         0.344978       0.010555
                                                         0.099466       0.017325
                          1       8    5fy3             10.077428      -0.467694
                                                         5.847736       0.618100
                                                         2.494033       0.066069
                                                         0.988355       0.262898
                                                         0.344978       0.004720
                                                         0.099466       0.007748
                          1       8    5fy2z            10.077428      -1.045795
                                                         5.847736       1.382114
                                                         2.494033       0.147734
                                                         0.988355       0.587859
                                                         0.344978       0.010555
                                                         0.099466       0.017325
                          1       8    5fyz2            10.077428      -1.045795
                                                         5.847736       1.382114
                                                         2.494033       0.147734
                                                         0.988355       0.587859
                                                         0.344978       0.010555
                                                         0.099466       0.017325
                          1       8    5fz3             10.077428      -0.467694
                                                         5.847736       0.618100
                                                         2.494033       0.066069
                                                         0.988355       0.262898
                                                         0.344978       0.004720
                                                         0.099466       0.007748

       Atomic covalent radius [Angstrom]:                                  1.150

       Atomic van der Waals radius [Angstrom]:                             1.630

     GTH Potential information for                                   GTH-PBE-q18

       Description:                       Goedecker-Teter-Hutter pseudopotential
                                           Goedecker et al., PRB 54, 1703 (1996)
                                          Hartwigsen et al., PRB 58, 3641 (1998)
                                                      Krack, TCA 114, 145 (2005)

       Gaussian exponent of the core charge distribution:               4.081633
       Electronic configuration (s p d ...):                           4   6   8

       Parameters of the local part of the GTH pseudopotential:

                          rloc        C1          C2          C3          C4
                        0.350000    2.102166    0.648484

       Parameters of the non-local part of the GTH pseudopotential:

                   l      r(l)      h(i,j,l)

                   0    0.261295    0.622658    9.970227
                                    9.970227  -12.871507
                   1    0.224253  -11.142708   12.429566
                                   12.429566  -14.706861
                   2    0.215348  -12.628146


 MOLECULE KIND INFORMATION


 All atoms are their own molecule, skipping detailed information


 TOTAL NUMBERS AND MAXIMUM NUMBERS

  Total number of            - Atomic kinds:                                   1
                             - Atoms:                                         32
                             - Shell sets:                                    32
                             - Shells:                                       256
                             - Primitive Cartesian functions:                192
                             - Cartesian basis functions:                    992
                             - Spherical basis functions:                    832

  Maximum angular momentum of- Orbital basis functions:                        3
                             - Local part of the GTH pseudopotential:          2
                             - Non-local part of the GTH pseudopotential:      3


 MODULE QUICKSTEP: ATOMIC COORDINATES IN ANGSTROM

   Atom Kind Element         X             Y             Z       Z(eff)     Mass
      1    1 Ni   28      0.000000      0.000000      0.000000  18.0000  58.6934
      2    1 Ni   28      0.000000      1.752900      1.752900  18.0000  58.6934
      3    1 Ni   28      1.752900      0.000000      1.752900  18.0000  58.6934
      4    1 Ni   28      1.752900      1.752900      0.000000  18.0000  58.6934
      5    1 Ni   28      3.505798      0.000000      0.000000  18.0000  58.6934
      6    1 Ni   28      3.505798      1.752900      1.752900  18.0000  58.6934
      7    1 Ni   28      5.258698      0.000000      1.752900  18.0000  58.6934
      8    1 Ni   28      5.258698      1.752900      0.000000  18.0000  58.6934
      9    1 Ni   28      0.000000      3.505798      0.000000  18.0000  58.6934
     10    1 Ni   28      0.000000      5.258698      1.752900  18.0000  58.6934
     11    1 Ni   28      1.752900      3.505798      1.752900  18.0000  58.6934
     12    1 Ni   28      1.752900      5.258698      0.000000  18.0000  58.6934
     13    1 Ni   28      3.505798      3.505798      0.000000  18.0000  58.6934
     14    1 Ni   28      3.505798      5.258698      1.752900  18.0000  58.6934
     15    1 Ni   28      5.258698      3.505798      1.752900  18.0000  58.6934
     16    1 Ni   28      5.258698      5.258698      0.000000  18.0000  58.6934
     17    1 Ni   28      0.000000      0.000000      3.505798  18.0000  58.6934
     18    1 Ni   28      0.000000      1.752900      5.258698  18.0000  58.6934
     19    1 Ni   28      1.752900      0.000000      5.258698  18.0000  58.6934
     20    1 Ni   28      1.752900      1.752900      3.505798  18.0000  58.6934
     21    1 Ni   28      3.505798      0.000000      3.505798  18.0000  58.6934
     22    1 Ni   28      3.505798      1.752900      5.258698  18.0000  58.6934
     23    1 Ni   28      5.258698      0.000000      5.258698  18.0000  58.6934
     24    1 Ni   28      5.258698      1.752900      3.505798  18.0000  58.6934
     25    1 Ni   28      0.000000      3.505798      3.505798  18.0000  58.6934
     26    1 Ni   28      0.000000      5.258698      5.258698  18.0000  58.6934
     27    1 Ni   28      1.752900      3.505798      5.258698  18.0000  58.6934
     28    1 Ni   28      1.752900      5.258698      3.505798  18.0000  58.6934
     29    1 Ni   28      3.505798      3.505798      3.505798  18.0000  58.6934
     30    1 Ni   28      3.505798      5.258698      5.258698  18.0000  58.6934
     31    1 Ni   28      5.258698      3.505798      5.258698  18.0000  58.6934
     32    1 Ni   28      5.258698      5.258698      3.505798  18.0000  58.6934



 SCF PARAMETERS         Density guess:                                    ATOMIC
                        --------------------------------------------------------
                        max_scf:                                             500
                        max_scf_history:                                       0
                        max_diis:                                              4
                        --------------------------------------------------------
                        eps_scf:                                        1.00E-08
                        eps_scf_history:                                0.00E+00
                        eps_diis:                                       1.00E-01
                        eps_eigval:                                     1.00E-05
                        --------------------------------------------------------
                        level_shift [a.u.]:                             0.000000
                        added MOs                                        30   30
                        --------------------------------------------------------
                        Mixing method:                            BROYDEN_MIXING
                                                charge density mixing in g-space
                        --------------------------------------------------------
                        Smear method:                                FERMI_DIRAC
                        Electronic temperature [K]:                        300.0
                        Electronic temperature [a.u.]:                  9.50E-04
                        Accuracy threshold:                             1.00E-10
                        --------------------------------------------------------
                        No outer SCF

 PW_GRID| Information for grid number                                          1
 PW_GRID| Grid distributed over                                   128 processors
 PW_GRID| Real space group dimensions                                     8   16
 PW_GRID| the grid is blocked:                                               YES
 PW_GRID| Cutoff [a.u.]                                                    300.0
 PW_GRID| spherical cutoff:                                                   NO
 PW_GRID|   Bounds   1            -54      53                Points:         108
 PW_GRID|   Bounds   2            -54      53                Points:         108
 PW_GRID|   Bounds   3            -54      53                Points:         108
 PW_GRID| Volume element (a.u.^3)  0.1847E-02     Volume (a.u.^3)      2326.2011
 PW_GRID| Grid span                                                    FULLSPACE
 PW_GRID|   Distribution                         Average         Max         Min
 PW_GRID|   G-Vectors                             9841.5       10584        8424
 PW_GRID|   G-Rays                                  91.1          98          78
 PW_GRID|   Real Space Points                     9841.5       10584        8424

 PW_GRID| Information for grid number                                          2
 PW_GRID| Number of the reference grid                                         1
 PW_GRID| Grid distributed over                                   128 processors
 PW_GRID| Real space group dimensions                                     8   16
 PW_GRID| the grid is blocked:                                                NO
 PW_GRID| Cutoff [a.u.]                                                    100.0
 PW_GRID| spherical cutoff:                                                   NO
 PW_GRID|   Bounds   1            -30      29                Points:          60
 PW_GRID|   Bounds   2            -30      29                Points:          60
 PW_GRID|   Bounds   3            -30      29                Points:          60
 PW_GRID| Volume element (a.u.^3)  0.1077E-01     Volume (a.u.^3)      2326.2011
 PW_GRID| Grid span                                                    FULLSPACE
 PW_GRID|   Distribution                         Average         Max         Min
 PW_GRID|   G-Vectors                             1687.5        5880           0
 PW_GRID|   G-Rays                                  28.1          98           0
 PW_GRID|   Real Space Points                     1687.5        1920        1260

 PW_GRID| Information for grid number                                          3
 PW_GRID| Number of the reference grid                                         1
 PW_GRID| Grid distributed over                                   128 processors
 PW_GRID| Real space group dimensions                                     8   16
 PW_GRID| the grid is blocked:                                                NO
 PW_GRID| Cutoff [a.u.]                                                     33.3
 PW_GRID| spherical cutoff:                                                   NO
 PW_GRID|   Bounds   1            -18      17                Points:          36
 PW_GRID|   Bounds   2            -18      17                Points:          36
 PW_GRID|   Bounds   3            -18      17                Points:          36
 PW_GRID| Volume element (a.u.^3)  0.4986E-01     Volume (a.u.^3)      2326.2011
 PW_GRID| Grid span                                                    FULLSPACE
 PW_GRID|   Distribution                         Average         Max         Min
 PW_GRID|   G-Vectors                              364.5        3528           0
 PW_GRID|   G-Rays                                  10.1          98           0
 PW_GRID|   Real Space Points                      364.5         540         288

 PW_GRID| Information for grid number                                          4
 PW_GRID| Number of the reference grid                                         1
 PW_GRID| Grid distributed over                                   128 processors
 PW_GRID| Real space group dimensions                                     8   16
 PW_GRID| the grid is blocked:                                                NO
 PW_GRID| Cutoff [a.u.]                                                     11.1
 PW_GRID| spherical cutoff:                                                   NO
 PW_GRID|   Bounds   1            -10       9                Points:          20
 PW_GRID|   Bounds   2            -10       9                Points:          20
 PW_GRID|   Bounds   3            -10       9                Points:          20
 PW_GRID| Volume element (a.u.^3)  0.2908         Volume (a.u.^3)      2326.2011
 PW_GRID| Grid span                                                    FULLSPACE
 PW_GRID|   Distribution                         Average         Max         Min
 PW_GRID|   G-Vectors                               62.5        1400           0
 PW_GRID|   G-Rays                                   3.1          70           0
 PW_GRID|   Real Space Points                       62.5         120          40

 PW_GRID| Information for grid number                                          5
 PW_GRID| Number of the reference grid                                         1
 PW_GRID| Grid distributed over                                   128 processors
 PW_GRID| Real space group dimensions                                     8   16
 PW_GRID| the grid is blocked:                                                NO
 PW_GRID| Cutoff [a.u.]                                                      3.7
 PW_GRID| spherical cutoff:                                                   NO
 PW_GRID|   Bounds   1             -6       5                Points:          12
 PW_GRID|   Bounds   2             -6       5                Points:          12
 PW_GRID|   Bounds   3             -6       5                Points:          12
 PW_GRID| Volume element (a.u.^3)   1.346         Volume (a.u.^3)      2326.2011
 PW_GRID| Grid span                                                    FULLSPACE
 PW_GRID|   Distribution                         Average         Max         Min
 PW_GRID|   G-Vectors                               13.5         432           0
 PW_GRID|   G-Rays                                   1.1          36           0
 PW_GRID|   Real Space Points                       13.5          24           0

 POISSON| Solver                                                        PERIODIC
 POISSON| Periodicity                                                        XYZ

 RS_GRID| Information for grid number                                          1
 RS_GRID|   Bounds   1            -54      53                Points:         108
 RS_GRID|   Bounds   2            -54      53                Points:         108
 RS_GRID|   Bounds   3            -54      53                Points:         108
 RS_GRID| Real space distribution over                                  8 groups
 RS_GRID| Real space distribution along direction                              2
 RS_GRID| Border size                                                         28
 RS_GRID| Real space distribution over                                 16 groups
 RS_GRID| Real space distribution along direction                              3
 RS_GRID| Border size                                                         28
 RS_GRID|   Distribution                         Average         Max         Min
 RS_GRID|   Planes                                  69.5          70          69
 RS_GRID|   Distribution                         Average         Max         Min
 RS_GRID|   Planes                                  62.8          63          62

 RS_GRID| Information for grid number                                          2
 RS_GRID|   Bounds   1            -30      29                Points:          60
 RS_GRID|   Bounds   2            -30      29                Points:          60
 RS_GRID|   Bounds   3            -30      29                Points:          60
 RS_GRID| Real space fully replicated
 RS_GRID| Group size                                                           1

 RS_GRID| Information for grid number                                          3
 RS_GRID|   Bounds   1            -18      17                Points:          36
 RS_GRID|   Bounds   2            -18      17                Points:          36
 RS_GRID|   Bounds   3            -18      17                Points:          36
 RS_GRID| Real space fully replicated
 RS_GRID| Group size                                                           1

 RS_GRID| Information for grid number                                          4
 RS_GRID|   Bounds   1            -10       9                Points:          20
 RS_GRID|   Bounds   2            -10       9                Points:          20
 RS_GRID|   Bounds   3            -10       9                Points:          20
 RS_GRID| Real space fully replicated
 RS_GRID| Group size                                                           1

 RS_GRID| Information for grid number                                          5
 RS_GRID|   Bounds   1             -6       5                Points:          12
 RS_GRID|   Bounds   2             -6       5                Points:          12
 RS_GRID|   Bounds   3             -6       5                Points:          12
 RS_GRID| Real space fully replicated
 RS_GRID| Group size                                                           1

 Spin 1

 Number of electrons:                                                        320
 Number of occupied orbitals:                                                320
 Number of molecular orbitals:                                               350

 Spin 2

 Number of electrons:                                                        256
 Number of occupied orbitals:                                                256
 Number of molecular orbitals:                                               286

 Number of orbital functions:                                                832
 Number of independent orbital functions:                                    832

 Extrapolation method: initial_guess

 Atomic guess: The first density matrix is obtained in terms of atomic orbitals
               and electronic configurations assigned to each atomic kind

 Guess for atomic kind: Ni

 Electronic structure
    Total number of core electrons                                         10.00
    Total number of valence electrons                                      18.00
    Total number of electrons                                              28.00
    Multiplicity                                                         triplet
    Alpha Electrons
    S   [  1.00  1.00] 1.00  1.00
    P   [  3.00] 3.00
    D      5.00
    Beta Electrons
    S   [  1.00  1.00] 1.00  1.00
    P   [  3.00] 3.00
    D      3.00


 *******************************************************************************
                  Iteration          Convergence                     Energy [au]
 *******************************************************************************
                          1         1.61955                    -167.102733612646
                          2         17.9576                    -156.964728082342
                          3         2.81889                    -168.347679739779
                          4        0.300879                    -168.639029543130
                          5        0.133614                    -168.643718125190
                          6        0.642384E-01                -168.645928334381
                          7        0.411618E-01                -168.646613747745
                          8        0.978516E-02                -168.646711132537
                          9        0.508781E-01                -168.646571314898
                         10        0.138948E-01                -168.646700563277
                         11        0.138660E-01                -168.646700237384
                         12        0.629414E-02                -168.646712261956
                         13        0.566241E-02                -168.646713151996
                         14        0.495313E-02                -168.646714117454
                         15        0.421991E-02                -168.646714987798
                         16        0.338228E-02                -168.646715812720
                         17        0.416465E-02                -168.646716816326
                         18        0.344616E-02                -168.646717043212
                         19        0.330991E-02                -168.646717101846
                         20        0.313342E-02                -168.646717172930
                         21        0.281829E-02                -168.646717286496
                         22        0.848656E-03                -168.646717732580
                         23        0.109512E-02                -168.646717723740
                         24        0.104995E-02                -168.646717732012
                         25        0.102855E-02                -168.646717736906
                         26        0.100245E-02                -168.646717743176
                         27        0.676032E-03                -168.646717806927
                         28        0.602106E-03                -168.646717861030
                         29        0.625282E-03                -168.646717860099
                         30        0.624945E-03                -168.646717860052
                         31        0.623853E-03                -168.646717860100
                         32        0.624150E-03                -168.646717860067
                         33        0.237289E-03                -168.646717879062
                         34        0.180801E-03                -168.646717882280
                         35        0.181452E-03                -168.646717882256
                         36        0.181661E-03                -168.646717882245
                         37        0.181696E-03                -168.646717882243
                         38        0.180660E-03                -168.646717882285
                         39        0.167278E-03                -168.646717884960
                         40        0.108251E-03                -168.646717886084
                         41        0.108355E-03                -168.646717886083
                         42        0.108427E-03                -168.646717886083
                         43        0.108486E-03                -168.646717886083
                         44        0.108485E-03                -168.646717886083
                         45        0.694677E-04                -168.646717886478
                         46        0.318666E-04                -168.646717886752
                         47        0.318508E-04                -168.646717886753
                         48        0.318379E-04                -168.646717886753
                         49        0.318252E-04                -168.646717886753
                         50        0.320703E-04                -168.646717886751
 No convergence within maximum number of iterations 

 Energy components [Hartree]           Total Energy ::         -168.646717886751
                                        Band Energy ::          -26.584923955507
                                     Kinetic Energy ::           97.352330251814
                                   Potential Energy ::         -265.999048138565
                                      Virial (-V/T) ::            2.732333652934
                                        Core Energy ::         -299.595021414610
                                          XC Energy ::          -16.265210292971
                                     Coulomb Energy ::          147.213513820830
                       Total Pseudopotential Energy ::         -397.033695283644
                       Local Pseudopotential Energy ::         -362.697061997994
                    Nonlocal Pseudopotential Energy ::          -34.336633285650
                                        Confinement ::            0.863436172188

 Orbital energies  State     Spin  L     Occupation   Energy[a.u.]    Energy[eV]

                       1    alpha  0          1.000      -4.198782   -114.254674
                       2    alpha  0          1.000      -0.185813     -5.056229
                       1     beta  0          1.000      -4.107299   -111.765292
                       2     beta  0          1.000      -0.171331     -4.662162

                       1    alpha  1          3.000      -2.604156    -70.862688
                       1     beta  1          3.000      -2.515143    -68.440529

                       1    alpha  2          5.000      -0.348813     -9.491687
                       1     beta  2          3.000      -0.273245     -7.435375


 Total Electron Density at R=0:                                         0.030313

 Spin 1
 Re-scaling the density matrix to get the right number of electrons for spin 1
                  # Electrons              Trace(P)               Scaling factor
                          320               320.032                        1.000

 Spin 2
 Re-scaling the density matrix to get the right number of electrons for spin 2
                  # Electrons              Trace(P)               Scaling factor
                          256               256.035                        1.000


 SCF WAVEFUNCTION OPTIMIZATION

  Step     Update method      Time    Convergence         Total energy    Change
  ------------------------------------------------------------------------------
     1 NoMix/Diag. 0.10E-01    0.7     0.80642385     -5430.5035547420 -5.43E+03
     2 Broy./Diag. 0.10E-01    0.5     0.00248163     -5360.7024942087  6.98E+01
     3 Broy./Diag. 0.10E-01    0.5     0.03279237     -5372.9275516959 -1.22E+01
     4 Broy./Diag. 0.10E-01    0.5     0.02321879     -5413.1856133335 -4.03E+01
     5 Broy./Diag. 0.10E-01    0.5     0.04481275     -5413.9734226111 -7.88E-01
     6 Broy./Diag. 0.10E-01    0.5     0.00297054     -5389.0701902719  2.49E+01
     7 Broy./Diag. 0.10E-01    0.5     0.01349705     -5390.8861492935 -1.82E+00
     8 Broy./Diag. 0.10E-01    0.5     0.04020303     -5388.2240273029  2.66E+00
     9 Broy./Diag. 0.10E-01    0.5     0.01137352     -5415.7158031316 -2.75E+01
    10 Broy./Diag. 0.10E-01    0.5     0.00222618     -5416.1536323074 -4.38E-01
    11 Broy./Diag. 0.10E-01    0.6     0.00305912     -5415.8421291300  3.12E-01
    12 Broy./Diag. 0.10E-01    0.5     0.01772924     -5415.4156701270  4.26E-01
    13 Broy./Diag. 0.10E-01    0.5     0.01081978     -5411.1461999912  4.27E+00
    14 Broy./Diag. 0.10E-01    0.5     0.00969346     -5408.0899556290  3.06E+00
    15 Broy./Diag. 0.10E-01    0.5     0.01364077     -5404.4918177140  3.60E+00
    16 Broy./Diag. 0.10E-01    0.5     0.01147663     -5397.5143259710  6.98E+00
    17 Broy./Diag. 0.10E-01    0.5     0.00685957     -5397.0825314021  4.32E-01
    18 Broy./Diag. 0.10E-01    0.5     0.00016219     -5396.9085730272  1.74E-01
    19 Broy./Diag. 0.10E-01    0.5     0.00043665     -5396.8042424949  1.04E-01
    20 Broy./Diag. 0.10E-01    0.5     0.00434136     -5396.7314633184  7.28E-02
    21 Broy./Diag. 0.10E-01    0.5     0.00393031     -5397.3313066571 -6.00E-01
    22 Broy./Diag. 0.10E-01    0.5     0.00164539     -5397.2652043807  6.61E-02
    23 Broy./Diag. 0.10E-01    0.5     0.00369474     -5397.4544980310 -1.89E-01
    24 Broy./Diag. 0.10E-01    0.6     0.02959619     -5401.6926120124 -4.24E+00
    25 Broy./Diag. 0.10E-01    0.5     0.02353417     -5422.1093663072 -2.04E+01
    26 Broy./Diag. 0.10E-01    0.5     0.01138363     -5406.1371679011  1.60E+01
    27 Broy./Diag. 0.10E-01    0.5     0.01130474     -5403.3748495730  2.76E+00
    28 Broy./Diag. 0.10E-01    0.5     0.00261959     -5399.4903701722  3.88E+00
    29 Broy./Diag. 0.10E-01    0.5     0.00638739     -5399.8905030325 -4.00E-01
    30 Broy./Diag. 0.10E-01    0.5     0.00438495     -5400.2856511065 -3.95E-01
    31 Broy./Diag. 0.10E-01    0.5     0.00141155     -5401.4514937202 -1.17E+00
    32 Broy./Diag. 0.10E-01    0.5     0.00514753     -5401.8851821519 -4.34E-01
    33 Broy./Diag. 0.10E-01    0.5     0.01650612     -5402.5490396498 -6.64E-01
    34 Broy./Diag. 0.10E-01    0.5     0.02890235     -5404.0158982087 -1.47E+00
    35 Broy./Diag. 0.10E-01    0.5     0.02408888     -5416.9959383490 -1.30E+01
    36 Broy./Diag. 0.10E-01    0.5     0.01202744     -5407.0391807182  9.96E+00
    37 Broy./Diag. 0.10E-01    0.5     0.00146175     -5413.6896458433 -6.65E+00
    38 Broy./Diag. 0.10E-01    0.5     0.00177421     -5414.1472571299 -4.58E-01
    39 Broy./Diag. 0.10E-01    0.5     0.00375261     -5414.2964545110 -1.49E-01
    40 Broy./Diag. 0.10E-01    0.5     0.00275296     -5415.5134406917 -1.22E+00
    41 Broy./Diag. 0.10E-01    0.5     0.02960025     -5414.6382728051  8.75E-01
    42 Broy./Diag. 0.10E-01    0.5     0.02982522     -5421.5707000726 -6.93E+00
    43 Broy./Diag. 0.10E-01    0.5     0.02040453     -5411.3805175473  1.02E+01
    44 Broy./Diag. 0.10E-01    0.5     0.01850084     -5418.3470825213 -6.97E+00
    45 Broy./Diag. 0.10E-01    0.5     0.01363001     -5413.2861353236  5.06E+00
    46 Broy./Diag. 0.10E-01    0.5     0.01512540     -5417.4760997879 -4.19E+00
    47 Broy./Diag. 0.10E-01    0.5     0.01289457     -5421.1674620635 -3.69E+00
    48 Broy./Diag. 0.10E-01    0.6     0.01117797     -5420.8739501277  2.94E-01
    49 Broy./Diag. 0.10E-01    0.5     0.00378033     -5420.4970936597  3.77E-01
    50 Broy./Diag. 0.10E-01    0.5     0.00129610     -5420.3412438679  1.56E-01
    51 Broy./Diag. 0.10E-01    0.5     0.00214432     -5419.3930258727  9.48E-01
    52 Broy./Diag. 0.10E-01    0.5     0.00234873     -5418.6538319089  7.39E-01
    53 Broy./Diag. 0.10E-01    0.5     0.00133121     -5418.1929856994  4.61E-01
    54 Broy./Diag. 0.10E-01    0.5     0.00025326     -5417.7294508171  4.64E-01
    55 Broy./Diag. 0.10E-01    0.5     0.00216620     -5417.6992588173  3.02E-02
    56 Broy./Diag. 0.10E-01    0.5     0.00024875     -5417.7869890863 -8.77E-02
    57 Broy./Diag. 0.10E-01    0.5     0.00020463     -5417.8187826859 -3.18E-02
    58 Broy./Diag. 0.10E-01    0.5     0.00061585     -5417.8321406761 -1.34E-02
    59 Broy./Diag. 0.10E-01    0.5     0.00023661     -5417.8378434468 -5.70E-03
    60 Broy./Diag. 0.10E-01    0.5     0.00037445     -5417.8505638001 -1.27E-02
    61 Broy./Diag. 0.10E-01    0.5     0.00017330     -5417.8650059567 -1.44E-02
    62 Broy./Diag. 0.10E-01    0.5     0.00017087     -5417.8467028220  1.83E-02
    63 Broy./Diag. 0.10E-01    0.5     0.00027984     -5417.8372091560  9.49E-03
    64 Broy./Diag. 0.10E-01    0.5     0.00017294     -5417.8366103619  5.99E-04
    65 Broy./Diag. 0.10E-01    0.5     0.00018355     -5417.8322256829  4.38E-03
    66 Broy./Diag. 0.10E-01    0.5     0.00007384     -5417.7988997747  3.33E-02
    67 Broy./Diag. 0.10E-01    0.5     0.00018008     -5417.8018338335 -2.93E-03
    68 Broy./Diag. 0.10E-01    0.5     0.00018936     -5417.8242568761 -2.24E-02
    69 Broy./Diag. 0.10E-01    0.5     0.00025068     -5417.8311114344 -6.85E-03
    70 Broy./Diag. 0.10E-01    0.5     0.00040456     -5417.8365350780 -5.42E-03
    71 Broy./Diag. 0.10E-01    0.5     0.00023068     -5417.8381095489 -1.57E-03
    72 Broy./Diag. 0.10E-01    0.5     0.00014284     -5417.8371087488  1.00E-03
    73 Broy./Diag. 0.10E-01    0.5     0.00023407     -5417.8351048103  2.00E-03
    74 Broy./Diag. 0.10E-01    0.5     0.00006552     -5417.8418559273 -6.75E-03
    75 Broy./Diag. 0.10E-01    0.5     0.00008425     -5417.8377490016  4.11E-03
    76 Broy./Diag. 0.10E-01    0.5     0.00007731     -5417.8267092308  1.10E-02
    77 Broy./Diag. 0.10E-01    0.5     0.00010774     -5417.8207670980  5.94E-03
    78 Broy./Diag. 0.10E-01    0.5     0.00006878     -5417.8302165017 -9.45E-03
    79 Broy./Diag. 0.10E-01    0.5     0.00013479     -5417.8331329515 -2.92E-03
    80 Broy./Diag. 0.10E-01    0.5     0.00018088     -5417.8293924774  3.74E-03
    81 Broy./Diag. 0.10E-01    0.5     0.00023486     -5417.8275142217  1.88E-03
    82 Broy./Diag. 0.10E-01    0.5     0.00016259     -5417.8253893911  2.12E-03
    83 Broy./Diag. 0.10E-01    0.5     0.00039297     -5417.8261137292 -7.24E-04
    84 Broy./Diag. 0.10E-01    0.6     0.00007190     -5417.8304315940 -4.32E-03
    85 Broy./Diag. 0.10E-01    0.5     0.00009038     -5417.8386054681 -8.17E-03
    86 Broy./Diag. 0.10E-01    0.5     0.00023574     -5417.8436232685 -5.02E-03
    87 Broy./Diag. 0.10E-01    0.5     0.00001383     -5417.8429249070  6.98E-04
    88 Broy./Diag. 0.10E-01    0.5     0.00052907     -5417.8412365677  1.69E-03
    89 Broy./Diag. 0.10E-01    0.5     0.00058351     -5417.8415460947 -3.10E-04
    90 Broy./Diag. 0.10E-01    0.5     0.00010491     -5417.8388930352  2.65E-03
    91 Broy./Diag. 0.10E-01    0.5     0.00035533     -5417.8360586793  2.83E-03
    92 Broy./Diag. 0.10E-01    0.5     0.00063942     -5417.8346557199  1.40E-03
    93 Broy./Diag. 0.10E-01    0.5     0.00007254     -5417.8365747593 -1.92E-03
    94 Broy./Diag. 0.10E-01    0.5     0.00033138     -5417.8404263658 -3.85E-03
    95 Broy./Diag. 0.10E-01    0.5     0.00009463     -5417.8526912923 -1.23E-02
    96 Broy./Diag. 0.10E-01    0.5     0.00060068     -5417.8541990928 -1.51E-03
    97 Broy./Diag. 0.10E-01    0.5     0.00060121     -5417.8550412489 -8.42E-04
    98 Broy./Diag. 0.10E-01    0.5     0.00013169     -5417.8547035620  3.38E-04
    99 Broy./Diag. 0.10E-01    0.5     0.00042713     -5417.8559323706 -1.23E-03
   100 Broy./Diag. 0.10E-01    0.5     0.00026116     -5417.8528289769  3.10E-03
   101 Broy./Diag. 0.10E-01    0.5     0.00016983     -5417.8529780808 -1.49E-04
   102 Broy./Diag. 0.10E-01    0.5     0.00011914     -5417.8478799780  5.10E-03
   103 Broy./Diag. 0.10E-01    0.6     0.00032411     -5417.8443508406  3.53E-03
   104 Broy./Diag. 0.10E-01    0.5     0.00069997     -5417.8435212353  8.30E-04
   105 Broy./Diag. 0.10E-01    0.5     0.00063779     -5417.8458578844 -2.34E-03
   106 Broy./Diag. 0.10E-01    0.5     0.00038361     -5417.8457136839  1.44E-04
   107 Broy./Diag. 0.10E-01    0.5     0.00016405     -5417.8440433438  1.67E-03
   108 Broy./Diag. 0.10E-01    0.5     0.00013794     -5417.8424959831  1.55E-03
   109 Broy./Diag. 0.10E-01    0.5     0.00021777     -5417.8417478592  7.48E-04
   110 Broy./Diag. 0.10E-01    0.5     0.00025865     -5417.8392858237  2.46E-03
   111 Broy./Diag. 0.10E-01    0.5     0.00058510     -5417.8397875576 -5.02E-04
   112 Broy./Diag. 0.10E-01    0.5     0.00004942     -5417.8391015106  6.86E-04
   113 Broy./Diag. 0.10E-01    0.5     0.00067806     -5417.8387624765  3.39E-04
   114 Broy./Diag. 0.10E-01    0.5     0.00054694     -5417.8407731776 -2.01E-03
   115 Broy./Diag. 0.10E-01    0.5     0.00070192     -5417.8427563685 -1.98E-03
   116 Broy./Diag. 0.10E-01    0.5     0.00019137     -5417.8429968034 -2.40E-04
   117 Broy./Diag. 0.10E-01    0.5     0.00014079     -5417.8417586301  1.24E-03
   118 Broy./Diag. 0.10E-01    0.5     0.00021077     -5417.8411673942  5.91E-04
   119 Broy./Diag. 0.10E-01    0.5     0.00041501     -5417.8425489599 -1.38E-03
   120 Broy./Diag. 0.10E-01    0.5     0.00045032     -5417.8429981894 -4.49E-04
   121 Broy./Diag. 0.10E-01    0.6     0.00060829     -5417.8436160165 -6.18E-04
   122 Broy./Diag. 0.10E-01    0.5     0.00018764     -5417.8451719666 -1.56E-03
   123 Broy./Diag. 0.10E-01    0.5     0.00028182     -5417.8463802201 -1.21E-03
   124 Broy./Diag. 0.10E-01    0.5     0.00006052     -5417.8469211328 -5.41E-04
   125 Broy./Diag. 0.10E-01    0.5     0.00003986     -5417.8457564216  1.16E-03
   126 Broy./Diag. 0.10E-01    0.5     0.00002358     -5417.8443947687  1.36E-03
   127 Broy./Diag. 0.10E-01    0.5     0.00013214     -5417.8450548661 -6.60E-04
   128 Broy./Diag. 0.10E-01    0.5     0.00003594     -5417.8462407262 -1.19E-03
   129 Broy./Diag. 0.10E-01    0.5     0.00011855     -5417.8452041201  1.04E-03
   130 Broy./Diag. 0.10E-01    0.5     0.00042868     -5417.8357744682  9.43E-03
   131 Broy./Diag. 0.10E-01    0.5     0.00036125     -5417.8265529611  9.22E-03
   132 Broy./Diag. 0.10E-01    0.5     0.00026146     -5417.8252713194  1.28E-03
   133 Broy./Diag. 0.10E-01    0.5     0.00027581     -5417.8240971967  1.17E-03
   134 Broy./Diag. 0.10E-01    0.6     0.00025125     -5417.8234423412  6.55E-04
   135 Broy./Diag. 0.10E-01    0.5     0.00027923     -5417.8262926236 -2.85E-03
   136 Broy./Diag. 0.10E-01    0.5     0.00036588     -5417.8274666034 -1.17E-03
   137 Broy./Diag. 0.10E-01    0.5     0.00009420     -5417.8290598649 -1.59E-03
   138 Broy./Diag. 0.10E-01    0.5     0.00015952     -5417.8289749539  8.49E-05
   139 Broy./Diag. 0.10E-01    0.6     0.00047869     -5417.8297377230 -7.63E-04
   140 Broy./Diag. 0.10E-01    0.5     0.00019796     -5417.8308245256 -1.09E-03
   141 Broy./Diag. 0.10E-01    0.5     0.00025410     -5417.8293187678  1.51E-03
   142 Broy./Diag. 0.10E-01    0.5     0.00012748     -5417.8282413552  1.08E-03
   143 Broy./Diag. 0.10E-01    0.5     0.00016659     -5417.8293604140 -1.12E-03
   144 Broy./Diag. 0.10E-01    0.5     0.00028669     -5417.8280464571  1.31E-03
   145 Broy./Diag. 0.10E-01    0.5     0.00024598     -5417.8282024930 -1.56E-04
   146 Broy./Diag. 0.10E-01    0.5     0.00042711     -5417.8279874943  2.15E-04
   147 Broy./Diag. 0.10E-01    0.5     0.00014924     -5417.8272638806  7.24E-04
   148 Broy./Diag. 0.10E-01    0.5     0.00005123     -5417.8274176499 -1.54E-04
   149 Broy./Diag. 0.10E-01    0.5     0.00044792     -5417.8301108047 -2.69E-03
   150 Broy./Diag. 0.10E-01    0.5     0.00015017     -5417.8326101996 -2.50E-03
   151 Broy./Diag. 0.10E-01    0.5     0.00021417     -5417.8351352661 -2.53E-03
   152 Broy./Diag. 0.10E-01    0.5     0.00022401     -5417.8350908243  4.44E-05
   153 Broy./Diag. 0.10E-01    0.5     0.00013882     -5417.8349425867  1.48E-04
   154 Broy./Diag. 0.10E-01    0.5     0.00026361     -5417.8302173123  4.73E-03
   155 Broy./Diag. 0.10E-01    0.5     0.00027830     -5417.8232136203  7.00E-03
   156 Broy./Diag. 0.10E-01    0.5     0.00048030     -5417.8258618437 -2.65E-03
   157 Broy./Diag. 0.10E-01    0.5     0.00041259     -5417.8274310328 -1.57E-03
   158 Broy./Diag. 0.10E-01    0.5     0.00018964     -5417.8279294180 -4.98E-04
   159 Broy./Diag. 0.10E-01    0.5     0.00003107     -5417.8283490733 -4.20E-04
   160 Broy./Diag. 0.10E-01    0.5     0.00011643     -5417.8301244715 -1.78E-03
   161 Broy./Diag. 0.10E-01    0.5     0.00019872     -5417.8287969283  1.33E-03
   162 Broy./Diag. 0.10E-01    0.5     0.00028452     -5417.8297531755 -9.56E-04
   163 Broy./Diag. 0.10E-01    0.5     0.00031237     -5417.8291223666  6.31E-04
   164 Broy./Diag. 0.10E-01    0.5     0.00020673     -5417.8283931220  7.29E-04
   165 Broy./Diag. 0.10E-01    0.5     0.00036021     -5417.8224228690  5.97E-03
   166 Broy./Diag. 0.10E-01    0.5     0.00022764     -5417.8202128861  2.21E-03
   167 Broy./Diag. 0.10E-01    0.5     0.00016459     -5417.8207628453 -5.50E-04
   168 Broy./Diag. 0.10E-01    0.5     0.00016475     -5417.8190491905  1.71E-03
   169 Broy./Diag. 0.10E-01    0.5     0.00005737     -5417.8255134619 -6.46E-03
   170 Broy./Diag. 0.10E-01    0.5     0.00021262     -5417.8247832190  7.30E-04
   171 Broy./Diag. 0.10E-01    0.5     0.00020194     -5417.8226438096  2.14E-03
   172 Broy./Diag. 0.10E-01    0.5     0.00018459     -5417.8224633530  1.80E-04
   173 Broy./Diag. 0.10E-01    0.5     0.00004900     -5417.8181286175  4.33E-03
   174 Broy./Diag. 0.10E-01    0.5     0.00012896     -5417.8201283124 -2.00E-03
   175 Broy./Diag. 0.10E-01    0.5     0.00029971     -5417.8145568500  5.57E-03
   176 Broy./Diag. 0.10E-01    0.6     0.00010621     -5417.8001732541  1.44E-02
   177 Broy./Diag. 0.10E-01    0.5     0.00015935     -5417.8022264368 -2.05E-03
   178 Broy./Diag. 0.10E-01    0.5     0.00031812     -5417.8059965881 -3.77E-03
   179 Broy./Diag. 0.10E-01    0.5     0.00018050     -5417.8166171670 -1.06E-02
   180 Broy./Diag. 0.10E-01    0.5     0.00026196     -5417.8228720793 -6.25E-03
   181 Broy./Diag. 0.10E-01    0.5     0.00009876     -5417.8391082390 -1.62E-02
   182 Broy./Diag. 0.10E-01    0.5     0.00012093     -5417.8422933319 -3.19E-03
   183 Broy./Diag. 0.10E-01    0.5     0.00015115     -5417.8463676293 -4.07E-03
   184 Broy./Diag. 0.10E-01    0.5     0.00005317     -5417.8362446614  1.01E-02
   185 Broy./Diag. 0.10E-01    0.5     0.00008931     -5417.8329739547  3.27E-03
   186 Broy./Diag. 0.10E-01    0.5     0.00003456     -5417.8367896763 -3.82E-03
   187 Broy./Diag. 0.10E-01    0.5     0.00009946     -5417.8372362230 -4.47E-04
   188 Broy./Diag. 0.10E-01    0.5     0.00016338     -5417.8401675686 -2.93E-03
   189 Broy./Diag. 0.10E-01    0.5     0.00010444     -5417.8441938568 -4.03E-03
   190 Broy./Diag. 0.10E-01    0.5     0.00051251     -5417.8379354150  6.26E-03
   191 Broy./Diag. 0.10E-01    0.5     0.00013540     -5417.8548221278 -1.69E-02
   192 Broy./Diag. 0.10E-01    0.5     0.00019895     -5417.8516895957  3.13E-03
   193 Broy./Diag. 0.10E-01    0.5     0.00012072     -5417.8373255479  1.44E-02
   194 Broy./Diag. 0.10E-01    0.6     0.00018338     -5417.8358905234  1.44E-03
   195 Broy./Diag. 0.10E-01    0.5     0.00014408     -5417.8440710717 -8.18E-03
   196 Broy./Diag. 0.10E-01    0.5     0.00002839     -5417.8466168822 -2.55E-03
   197 Broy./Diag. 0.10E-01    0.5     0.00019093     -5417.8429020330  3.71E-03
   198 Broy./Diag. 0.10E-01    0.5     0.00025855     -5417.8449157364 -2.01E-03
   199 Broy./Diag. 0.10E-01    0.5     0.00025302     -5417.8416578213  3.26E-03
   200 Broy./Diag. 0.10E-01    0.5     0.00018482     -5417.8399418117  1.72E-03
   201 Broy./Diag. 0.10E-01    0.5     0.00023249     -5417.8380498453  1.89E-03
   202 Broy./Diag. 0.10E-01    0.5     0.00023547     -5417.8375607845  4.89E-04
   203 Broy./Diag. 0.10E-01    0.5     0.00012571     -5417.8417559143 -4.20E-03
   204 Broy./Diag. 0.10E-01    0.5     0.00005159     -5417.8431102710 -1.35E-03
   205 Broy./Diag. 0.10E-01    0.5     0.00006372     -5417.8448678538 -1.76E-03
   206 Broy./Diag. 0.10E-01    0.5     0.00005096     -5417.8448171829  5.07E-05
   207 Broy./Diag. 0.10E-01    0.5     0.00010648     -5417.8407259200  4.09E-03
   208 Broy./Diag. 0.10E-01    0.5     0.00003627     -5417.8416044009 -8.78E-04
   209 Broy./Diag. 0.10E-01    0.5     0.00005421     -5417.8421156086 -5.11E-04
   210 Broy./Diag. 0.10E-01    0.5     0.00004463     -5417.8410014812  1.11E-03
   211 Broy./Diag. 0.10E-01    0.5     0.00013883     -5417.8414080824 -4.07E-04
   212 Broy./Diag. 0.10E-01    0.5     0.00014212     -5417.8440638757 -2.66E-03
   213 Broy./Diag. 0.10E-01    0.5     0.00026297     -5417.8430798866  9.84E-04
   214 Broy./Diag. 0.10E-01    0.5     0.00008803     -5417.8439461161 -8.66E-04
   215 Broy./Diag. 0.10E-01    0.5     0.00011581     -5417.8399616572  3.98E-03
   216 Broy./Diag. 0.10E-01    0.5     0.00006895     -5417.8386797121  1.28E-03
   217 Broy./Diag. 0.10E-01    0.5     0.00027160     -5417.8410128262 -2.33E-03
   218 Broy./Diag. 0.10E-01    0.5     0.00008624     -5417.8417425639 -7.30E-04
   219 Broy./Diag. 0.10E-01    0.5     0.00049026     -5417.8444219541 -2.68E-03
   220 Broy./Diag. 0.10E-01    0.5     0.00019472     -5417.8540184562 -9.60E-03
   221 Broy./Diag. 0.10E-01    0.5     0.00026028     -5417.8553634044 -1.34E-03
   222 Broy./Diag. 0.10E-01    0.5     0.00038573     -5417.8523842334  2.98E-03
   223 Broy./Diag. 0.10E-01    0.5     0.00004141     -5417.8461643931  6.22E-03
   224 Broy./Diag. 0.10E-01    0.5     0.00004363     -5417.8455669033  5.97E-04
   225 Broy./Diag. 0.10E-01    0.5     0.00010207     -5417.8439305943  1.64E-03
   226 Broy./Diag. 0.10E-01    0.5     0.00039899     -5417.8427171539  1.21E-03
   227 Broy./Diag. 0.10E-01    0.5     0.00002891     -5417.8467363110 -4.02E-03
   228 Broy./Diag. 0.10E-01    0.5     0.00006484     -5417.8468916644 -1.55E-04
   229 Broy./Diag. 0.10E-01    0.5     0.00013455     -5417.8448621926  2.03E-03
   230 Broy./Diag. 0.10E-01    0.5     0.00039544     -5417.8428607444  2.00E-03
   231 Broy./Diag. 0.10E-01    0.6     0.00030385     -5417.8431131809 -2.52E-04
   232 Broy./Diag. 0.10E-01    0.5     0.00014726     -5417.8318180705  1.13E-02
   233 Broy./Diag. 0.10E-01    0.5     0.00014450     -5417.8342915168 -2.47E-03
   234 Broy./Diag. 0.10E-01    0.6     0.00014340     -5417.8411833309 -6.89E-03
   235 Broy./Diag. 0.10E-01    0.6     0.00010558     -5417.8427735287 -1.59E-03
   236 Broy./Diag. 0.10E-01    0.6     0.00005339     -5417.8411304109  1.64E-03
   237 Broy./Diag. 0.10E-01    0.6     0.00012876     -5417.8378552276  3.28E-03
   238 Broy./Diag. 0.10E-01    0.5     0.00016992     -5417.8359987668  1.86E-03
   239 Broy./Diag. 0.10E-01    0.5     0.00004332     -5417.8383444761 -2.35E-03
   240 Broy./Diag. 0.10E-01    0.5     0.00001005     -5417.8387401189 -3.96E-04
   241 Broy./Diag. 0.10E-01    0.5     0.00013711     -5417.8378071791  9.33E-04
   242 Broy./Diag. 0.10E-01    0.5     0.00022048     -5417.8417765560 -3.97E-03
   243 Broy./Diag. 0.10E-01    0.5     0.00006901     -5417.8433880660 -1.61E-03
   244 Broy./Diag. 0.10E-01    0.5     0.00012422     -5417.8419695623  1.42E-03
   245 Broy./Diag. 0.10E-01    0.5     0.00018349     -5417.8385106062  3.46E-03
   246 Broy./Diag. 0.10E-01    0.5     0.00005681     -5417.8375942648  9.16E-04
   247 Broy./Diag. 0.10E-01    0.5     0.00016264     -5417.8326158129  4.98E-03
   248 Broy./Diag. 0.10E-01    0.5     0.00031956     -5417.8327833413 -1.68E-04
   249 Broy./Diag. 0.10E-01    0.5     0.00024093     -5417.8313195650  1.46E-03
   250 Broy./Diag. 0.10E-01    0.5     0.00033298     -5417.8306953084  6.24E-04
   251 Broy./Diag. 0.10E-01    0.5     0.00009590     -5417.8347679974 -4.07E-03
   252 Broy./Diag. 0.10E-01    0.5     0.00015701     -5417.8327424959  2.03E-03
   253 Broy./Diag. 0.10E-01    0.5     0.00022460     -5417.8305501957  2.19E-03
   254 Broy./Diag. 0.10E-01    0.5     0.00028714     -5417.8306745682 -1.24E-04
   255 Broy./Diag. 0.10E-01    0.5     0.00016049     -5417.8302600972  4.14E-04
   256 Broy./Diag. 0.10E-01    0.5     0.00033223     -5417.8295306629  7.29E-04
   257 Broy./Diag. 0.10E-01    0.5     0.00009199     -5417.8295354188 -4.76E-06
   258 Broy./Diag. 0.10E-01    0.5     0.00009310     -5417.8309485551 -1.41E-03
   259 Broy./Diag. 0.10E-01    0.5     0.00018065     -5417.8336888110 -2.74E-03
   260 Broy./Diag. 0.10E-01    0.5     0.00030536     -5417.8326648879  1.02E-03
   261 Broy./Diag. 0.10E-01    0.5     0.00017207     -5417.8303618513  2.30E-03
   262 Broy./Diag. 0.10E-01    0.5     0.00037400     -5417.8287107381  1.65E-03
   263 Broy./Diag. 0.10E-01    0.5     0.00012725     -5417.8271329001  1.58E-03
   264 Broy./Diag. 0.10E-01    0.5     0.00006656     -5417.8269758671  1.57E-04
   265 Broy./Diag. 0.10E-01    0.5     0.00018158     -5417.8281275119 -1.15E-03
   266 Broy./Diag. 0.10E-01    0.5     0.00010390     -5417.8283216478 -1.94E-04
   267 Broy./Diag. 0.10E-01    0.6     0.00038413     -5417.8275795878  7.42E-04
   268 Broy./Diag. 0.10E-01    0.5     0.00045070     -5417.8266074926  9.72E-04
   269 Broy./Diag. 0.10E-01    0.5     0.00025176     -5417.8269752417 -3.68E-04
   270 Broy./Diag. 0.10E-01    0.5     0.00018608     -5417.8283498075 -1.37E-03
   271 Broy./Diag. 0.10E-01    0.5     0.00007086     -5417.8278995615  4.50E-04
   272 Broy./Diag. 0.10E-01    0.5     0.00016326     -5417.8286513048 -7.52E-04
   273 Broy./Diag. 0.10E-01    0.5     0.00041644     -5417.8274763849  1.17E-03
   274 Broy./Diag. 0.10E-01    0.5     0.00019651     -5417.8270731477  4.03E-04
   275 Broy./Diag. 0.10E-01    0.5     0.00057520     -5417.8269047965  1.68E-04
   276 Broy./Diag. 0.10E-01    0.5     0.00010603     -5417.8254093912  1.50E-03
   277 Broy./Diag. 0.10E-01    0.5     0.00022445     -5417.8252829015  1.26E-04
   278 Broy./Diag. 0.10E-01    0.5     0.00029184     -5417.8273172735 -2.03E-03
   279 Broy./Diag. 0.10E-01    0.5     0.00028814     -5417.8280895124 -7.72E-04
   280 Broy./Diag. 0.10E-01    0.5     0.00005606     -5417.8277996871  2.90E-04
   281 Broy./Diag. 0.10E-01    0.5     0.00018004     -5417.8286542412 -8.55E-04
   282 Broy./Diag. 0.10E-01    0.5     0.00054733     -5417.8285987819  5.55E-05
   283 Broy./Diag. 0.10E-01    0.5     0.00053817     -5417.8285296168  6.92E-05
   284 Broy./Diag. 0.10E-01    0.5     0.00028475     -5417.8289631464 -4.34E-04
   285 Broy./Diag. 0.10E-01    0.6     0.00021747     -5417.8292450896 -2.82E-04
   286 Broy./Diag. 0.10E-01    0.5     0.00025623     -5417.8297452522 -5.00E-04
   287 Broy./Diag. 0.10E-01    0.5     0.00021422     -5417.8295734381  1.72E-04
   288 Broy./Diag. 0.10E-01    0.5     0.00010078     -5417.8266514274  2.92E-03
   289 Broy./Diag. 0.10E-01    0.5     0.00011203     -5417.8238668378  2.78E-03
   290 Broy./Diag. 0.10E-01    0.5     0.00066639     -5417.8244089866 -5.42E-04
   291 Broy./Diag. 0.10E-01    0.5     0.00034342     -5417.8240093792  4.00E-04
   292 Broy./Diag. 0.10E-01    0.5     0.00005969     -5417.8238701424  1.39E-04
   293 Broy./Diag. 0.10E-01    0.5     0.00006450     -5417.8270442295 -3.17E-03
   294 Broy./Diag. 0.10E-01    0.5     0.00007822     -5417.8351058945 -8.06E-03
[...]
      18     Ni       1         9.343800     8.656326    -0.000126     0.687473
      19     Ni       1         9.343719     8.656407    -0.000126     0.687312
      20     Ni       1         9.343541     8.656726    -0.000267     0.686816
      21     Ni       1         9.343935     8.655545     0.000519     0.688390
      22     Ni       1         9.343800     8.656326    -0.000126     0.687473
      23     Ni       1         9.343719     8.656407    -0.000126     0.687312
      24     Ni       1         9.343541     8.656726    -0.000267     0.686816
      25     Ni       1         9.343935     8.655545     0.000519     0.688390
      26     Ni       1         9.343800     8.656326    -0.000126     0.687473
      27     Ni       1         9.343719     8.656407    -0.000126     0.687312
      28     Ni       1         9.343541     8.656726    -0.000267     0.686816
      29     Ni       1         9.343935     8.655545     0.000519     0.688390
      30     Ni       1         9.343800     8.656326    -0.000126     0.687473
      31     Ni       1         9.343719     8.656407    -0.000126     0.687312
      32     Ni       1         9.343541     8.656726    -0.000267     0.686816
 # Total charge and spin      298.999965   277.000035    -0.000000    21.999931

 !-----------------------------------------------------------------------------!

 !-----------------------------------------------------------------------------!
                           Hirshfeld Charges

  #Atom  Element  Kind  Ref Charge     Population       Spin moment  Net charge
      1       Ni     1      18.000    9.344   8.656            0.688      0.000
      2       Ni     1      18.000    9.344   8.656            0.687     -0.000
      3       Ni     1      18.000    9.344   8.656            0.687     -0.000
      4       Ni     1      18.000    9.344   8.657            0.687     -0.000
      5       Ni     1      18.000    9.344   8.656            0.688      0.000
      6       Ni     1      18.000    9.344   8.656            0.687     -0.000
      7       Ni     1      18.000    9.344   8.656            0.687     -0.000
      8       Ni     1      18.000    9.344   8.657            0.687     -0.000
      9       Ni     1      18.000    9.344   8.656            0.688      0.000
     10       Ni     1      18.000    9.344   8.656            0.687     -0.000
     11       Ni     1      18.000    9.344   8.656            0.687     -0.000
     12       Ni     1      18.000    9.344   8.657            0.687     -0.000
     13       Ni     1      18.000    9.344   8.656            0.688      0.000
     14       Ni     1      18.000    9.344   8.656            0.687     -0.000
     15       Ni     1      18.000    9.344   8.656            0.687     -0.000
     16       Ni     1      18.000    9.344   8.657            0.687     -0.000
     17       Ni     1      18.000    9.344   8.656            0.688      0.000
     18       Ni     1      18.000    9.344   8.656            0.687     -0.000
     19       Ni     1      18.000    9.344   8.656            0.687     -0.000
     20       Ni     1      18.000    9.344   8.657            0.687     -0.000
     21       Ni     1      18.000    9.344   8.656            0.688      0.000
     22       Ni     1      18.000    9.344   8.656            0.687     -0.000
     23       Ni     1      18.000    9.344   8.656            0.687     -0.000
     24       Ni     1      18.000    9.344   8.657            0.687     -0.000
     25       Ni     1      18.000    9.344   8.656            0.688      0.000
     26       Ni     1      18.000    9.344   8.656            0.687     -0.000
     27       Ni     1      18.000    9.344   8.656            0.687     -0.000
     28       Ni     1      18.000    9.344   8.657            0.687     -0.000
     29       Ni     1      18.000    9.344   8.656            0.688      0.000
     30       Ni     1      18.000    9.344   8.656            0.687     -0.000
     31       Ni     1      18.000    9.344   8.656            0.687     -0.000
     32       Ni     1      18.000    9.344   8.657            0.687     -0.000

  Total Charge                                                           -0.000
 !-----------------------------------------------------------------------------!

 ENERGY| Total FORCE_EVAL ( QS ) energy [a.u.]:            -5417.831716090520786

 -------------------------------------------------------------------------------
 -                                                                             -
 -                                DBCSR STATISTICS                             -
 -                                                                             -
 -------------------------------------------------------------------------------
 COUNTER                                    TOTAL       BLAS       SMM       ACC
 flops    26 x    26 x    30          21415680000       0.0%    100.0%      0.0%
 flops    26 x    26 x    32         205590528000       0.0%    100.0%      0.0%
 flops inhomo. stacks                           0       0.0%      0.0%      0.0%
 flops total                       227.006208E+09       0.0%    100.0%      0.0%
 flops max/rank                      3.009552E+09       0.0%    100.0%      0.0%
 matmuls inhomo. stacks                         0       0.0%      0.0%      0.0%
 matmuls total                            5280000       0.0%    100.0%      0.0%
 number of processed stacks               1280000       0.0%    100.0%      0.0%
 average stack size                                     0.0       4.1       0.0
 marketing flops                   405.014774E+09
 -------------------------------------------------------------------------------
 # multiplications                           1000
 max memory usage/rank             232.378368E+06
 # max total images/rank                        2
 # max 3D layers                                1
 # MPI messages exchanged                 3712000
 MPI messages size (bytes):
  total size                        46.565376E+09
  min size                           0.000000E+00
  max size                          26.624000E+03
  average size                      12.544552E+03
 MPI breakdown and total messages size (bytes):
             size <=      128             1392000                        0
       128 < size <=     8192                   0                        0
      8192 < size <=    32768             2320000              46565376000
     32768 < size <=   131072                   0                        0
    131072 < size <=  4194304                   0                        0
   4194304 < size <= 16777216                   0                        0
  16777216 < size                               0                        0
 -------------------------------------------------------------------------------

 *** WARNING in dbcsr_mm.F:290 :: Using a non-square number of MPI ranks ***
 *** might lead to poor performance. Used ranks: 128 Suggested: 121 256  ***

 -------------------------------------------------------------------------------
 -                                                                             -
 -                      DBCSR MESSAGE PASSING PERFORMANCE                      -
 -                                                                             -
 -------------------------------------------------------------------------------
 ROUTINE             CALLS      AVE VOLUME [Bytes]
 MP_Bcast                3                     12.
 MP_Allreduce         7025                      8.
 MP_Alltoall         28012                  50954.
 MP_ISend            64000                   6481.
 MP_IRecv            64000                   5647.
 -------------------------------------------------------------------------------

 -------------------------------------------------------------------------------
 -                                                                             -
 -                                DBM STATISTICS                               -
 -                                                                             -
 -------------------------------------------------------------------------------
    M  x    N  x    K                                          COUNT     PERCENT
 -------------------------------------------------------------------------------

 -------------------------------------------------------------------------------
 -                                                                             -
 -                                GRID STATISTICS                              -
 -                                                                             -
 -------------------------------------------------------------------------------
 LP    KERNEL             BACKEND                              COUNT     PERCENT
 6     collocate ortho    REF                               77210112      50.02%
 6     integrate ortho    REF                               77056000      49.92%
 0     integrate general  REF                                  65536       0.04%
 0     collocate general  REF                                  36864       0.02%
 -------------------------------------------------------------------------------

 MEMORY| Estimated peak process memory [MiB]                                 224

 -------------------------------------------------------------------------------
 ----                             MULTIGRID INFO                            ----
 -------------------------------------------------------------------------------
 count for grid        1:         969696          cutoff [a.u.]          300.00
 count for grid        2:         304320          cutoff [a.u.]          100.00
 count for grid        3:         238080          cutoff [a.u.]           33.33
 count for grid        4:          65120          cutoff [a.u.]           11.11
 count for grid        5:           5120          cutoff [a.u.]            3.70
 total gridlevel count  :        1582336

 -------------------------------------------------------------------------------
 -                                                                             -
 -                         MESSAGE PASSING PERFORMANCE                         -
 -                                                                             -
 -------------------------------------------------------------------------------

 ROUTINE             CALLS      AVE VOLUME [Bytes]
 MP_Group                5
 MP_Bcast             2531                  73596.
 MP_Allreduce        12903                     95.
 MP_Sync             18021
 MP_Alltoall         33034               27070080.
 MP_SendRecv        509016                   5208.
 MP_ISendRecv       508000                   5208.
 MP_Wait            606262
 MP_comm_split        1000
 MP_ISend           206212                  38670.
 MP_IRecv           206456                  38627.
 MP_Recv               750                 133120.
 MP_Write_All            2                  19908.
 -------------------------------------------------------------------------------


 -------------------------------------------------------------------------------
 -                                                                             -
 -                           R E F E R E N C E S                               -
 -                                                                             -
 -------------------------------------------------------------------------------
 
 CP2K version 2023.1, the CP2K developers group (2023).
 CP2K is freely available from https://www.cp2k.org/ .

 Kuehne,Thomas D.; Iannuzzi,Marcella; Del Ben,Mauro;
 Rybkin,Vladimir V.; Seewald,Patrick; Stein,Frederick; Laino,Teodoro;
 Khaliullin,Rustam Z.; Schuett,Ole; Schiffmann,Florian; Golze,Dorothea;
 Wilhelm,Jan; Chulkov,Sergey; Bani-Hashemian,Mohammad Hossein;
 Weber,Valery; Borstnik,Urban; Taillefumier,Mathieu;
 Jakobovits,Alice Shoshana; Lazzaro,Alfio; Pabst,Hans; Mueller,Tiziano;
 Schade,Robert; Guidon,Manuel; Andermatt,Samuel; Holmberg,Nico;
 Schenter,Gregory K.; Hehn,Anna; Bussy,Augustin; Belleflamme,Fabian;
 Tabacchi,Gloria; Gloess,Andreas; Lass,Michael; Bethune,Iain;
 Mundy,Christopher J.; Plessl,Christian; Watkins,Matt;
 VandeVondele,Joost; Krack,Matthias; Hutter,Juerg. 
 The Journal of Chemical Physics, 152 (19), (2020). 
 CP2K: An electronic structure and molecular dynamics software package -
 Quickstep: Efficient and accurate electronic structure calculations.
 https://doi.org/10.1063/5.0007045

 Schuett, Ole; Messmer, Peter; Hutter, Juerg; VandeVondele, Joost. 
 Electronic Structure Calculations on Graphics Processing Units, John
 Wiley & Sons, Ltd, 173-190 (2016). 
 GPU-Accelerated Sparse Matrix-Matrix Multiplication for
 Linear Scaling Density Functional Theory.
 https://doi.org/10.1002/9781118670712.ch8

 Heinecke, A; Henry, G; Hutchinson, M; Pabst, H. 
 Proceedings of Intl. Supercomputing Conference, 981-991 (2016). 
 LIBXSMM: Accelerating Small Matrix Multiplications
 by Runtime Code Generation.
 https://doi.org/10.1109/SC.2016.83

 Borstnik, U; VandeVondele, J; Weber, V; Hutter, J. 
 PARALLEL COMPUTING, 40 (5-6), 47-58 (2014). 
 Sparse matrix multiplication: The distributed block-compressed sparse
 row library.
 https://doi.org/10.1016/j.parco.2014.03.012

 Hutter, J; Iannuzzi, M; Schiffmann, F; VandeVondele, J. 
 WIREs Comput Mol Sci., 4 (1), 15-25 (2014). 
 CP2K: atomistic simulations of condensed matter systems.
 https://doi.org/10.1002/wcms.1159

 Marek, A; Blum, V; Johanni, R; Havu, V; Lang, B; Auckenthaler, T;
 Heinecke, A; Bungartz, H; Lederer, H. 
 Journal of Physics: Condensed Matter, 26 (21), (2014). 
 The ELPA library: scalable parallel eigenvalue solutions for
 electronic structure
 theory and computational science.
 https://doi.org/10.1088/0953-8984/26/21/213201

 VandeVondele, J; Hutter, J. 
 JOURNAL OF CHEMICAL PHYSICS, 127 (11), 114105 (2007). 
 Gaussian basis sets for accurate calculations on molecular systems in
 gas and condensed phases.
 https://doi.org/10.1063/1.2770708

 Krack, M. 
 THEORETICAL CHEMISTRY ACCOUNTS, 114 (1-3), 145-152 (2005). 
 Pseudopotentials for H to Kr optimized for gradient-corrected
 exchange-correlation functionals.
 https://doi.org/10.1007/s00214-005-0655-y

 VandeVondele, J; Krack, M; Mohamed, F; Parrinello, M; Chassaing, T;
 Hutter, J. COMPUTER PHYSICS COMMUNICATIONS, 167 (2), 103-128 (2005). 
 QUICKSTEP: Fast and accurate density functional calculations using a
 mixed Gaussian and plane waves approach.
 https://doi.org/10.1016/j.cpc.2004.12.014

 Frigo, M; Johnson, SG. 
 PROCEEDINGS OF THE IEEE, 93 (2), 216-231 (2005). 
 The design and implementation of FFTW3.
 https://doi.org/10.1109/JPROC.2004.840301

 Hartwigsen, C; Goedecker, S; Hutter, J. 
 PHYSICAL REVIEW B, 58 (7), 3641-3662 (1998). 
 Relativistic separable dual-space Gaussian pseudopotentials from H to Rn.
 https://doi.org/10.1103/PhysRevB.58.3641

 Lippert, G; Hutter, J; Parrinello, M. 
 MOLECULAR PHYSICS, 92 (3), 477-487 (1997). 
 A hybrid Gaussian and plane wave density functional scheme.
 https://doi.org/10.1080/002689797170220

 Perdew, JP; Burke, K; Ernzerhof, M. 
 PHYSICAL REVIEW LETTERS, 77 (18), 3865-3868 (1996). 
 Generalized gradient approximation made simple.
 https://doi.org/10.1103/PhysRevLett.77.3865

 Goedecker, S; Teter, M; Hutter, J. 
 PHYSICAL REVIEW B, 54 (3), 1703-1710 (1996). 
 Separable dual-space Gaussian pseudopotentials.
 https://doi.org/10.1103/PhysRevB.54.1703


 -------------------------------------------------------------------------------
 -                                                                             -
 -                                T I M I N G                                  -
 -                                                                             -
 -------------------------------------------------------------------------------
 SUBROUTINE                       CALLS  ASD         SELF TIME        TOTAL TIME
                                MAXIMUM       AVERAGE  MAXIMUM  AVERAGE  MAXIMUM
 CP2K                                 1  1.0    0.024    0.026  275.085  275.086
 qs_energies                          1  2.0    0.002    0.003  274.808  274.808
 scf_env_do_scf                       1  3.0    0.001    0.002  273.830  273.833
 scf_env_do_scf_inner_loop          500  4.0    0.022    0.044  273.828  273.831
 qs_ks_update_qs_env                500  5.0    0.008    0.010  102.264  102.326
 rebuild_ks_matrix                  500  6.0    0.003    0.004  102.205  102.268
 qs_ks_build_kohn_sham_matrix       500  7.0    0.076    0.112  102.203  102.266
 qs_rho_update_rho_low              501  5.0    0.005    0.006   89.650   89.657
 calculate_rho_elec                1002  6.0    0.080    0.088   89.644   89.651
 sum_up_and_integrate               500  8.0    0.069    0.132   86.010   86.080
 integrate_v_rspace                1000  9.0    0.033    0.046   85.936   86.021
 qs_scf_new_mos                     500  5.0    0.009    0.012   76.603   76.773
 eigensolver                       1000  6.0    0.096    0.135   71.933   71.957
 grid_collocate_task_list          1002  7.0   68.759   71.591   68.759   71.591
 grid_integrate_task_list          1000 10.0   61.584   64.344   61.584   64.344
 cp_fm_diag_elpa                   1000  7.0    0.004    0.009   63.766   63.903
 cp_fm_redistribute_end            1000  8.0   54.903   62.939   55.170   62.952
 cp_fm_diag_elpa_base              1000  8.0    7.587   60.850    7.729   61.861
 rs_pw_transfer                   10014  9.5    0.124    0.179   31.388   33.959
 density_rs2pw                     1002  7.0    0.039    0.047   19.966   22.511
 pw_transfer                      20511 10.0    2.652    2.841   20.967   21.814
 potential_pw2rs                   1000 10.0    0.038    0.047   20.819   21.062
 fft_wrap_pw1pw2                  19511 11.1    0.083    0.098   18.281   19.353
 fft_wrap_pw1pw2_300              11503 12.4    0.394    0.470   15.118   15.748
 qs_vxc_create                      500  8.0    0.007    0.009   14.850   14.895
 xc_vxc_pw_create                   500  9.0    0.132    0.148   14.843   14.888
 fft3d_pb                         11503 13.4    3.473    3.869   12.797   13.737
 mp_waitany                       64192 11.5    9.804   12.768    9.804   12.768
 rs_pw_transfer_PW2RS_300          1002 12.0    4.095    4.836   11.790   12.266
 rs_pw_transfer_RS2PW_300          1004  9.0    2.973    4.043    9.274   11.812
 mp_alltoall_z22v                 31014 15.2    8.038    9.650    8.038    9.650
 xc_rho_set_and_dset_create         500 10.0    0.145    0.165    9.010    9.510
 xc_pw_derive                      6000 11.0    0.016    0.020    8.199    8.905
 cp_fm_cholesky_restore            3000  7.0    7.827    8.031    7.827    8.031
 mp_alltoall_d11v                 14008  9.3    4.405    6.524    4.405    6.524
 xc_pw_divergence                  1000 10.0    0.008    0.010    5.558    6.359
 rs_gather_matrices                1000 10.0    0.057    0.105    3.500    5.630
 -------------------------------------------------------------------------------

 The number of warnings for this run is : 2
 
 -------------------------------------------------------------------------------
  **** **** ******  **  PROGRAM ENDED AT                 2023-02-06 17:15:58.285
 ***** ** ***  *** **   PROGRAM RAN ON                                 nid004539
 **    ****   ******    PROGRAM RAN BY                                    cahart
 ***** **    ** ** **   PROGRAM PROCESS ID                                 31695
  **** **  *******  **  PROGRAM STOPPED IN /mnt/lustre/a2fs-work2/work/e05/e05/c
                                           ahart/postdoc/masters/ni/archer2/bulk
                                           /optimise/multiplicity-65_mos-30_temp
                                           -300/search/1.0E-2_5.0E-01
