 DBCSR| CPU Multiplication driver                                           XSMM (U)
 DBCSR| Multrec recursion limit                                              512 (U)
 DBCSR| Multiplication stack size                                           1000 (D)
 DBCSR| Maximum elements for images                                    UNLIMITED (U)
 DBCSR| Multiplicative factor virtual images                                   1 (U)
 DBCSR| Use multiplication densification                                       T (D)
 DBCSR| Multiplication size stacks                                             3 (U)
 DBCSR| Use memory pool for CPU allocation                                     F (U)
 DBCSR| Number of 3D layers                                               SINGLE (U)
 DBCSR| Use MPI memory allocation                                              F (U)
 DBCSR| Use RMA algorithm                                                      F (U)
 DBCSR| Use Communication thread                                               T (U)
 DBCSR| Communication thread load                                             87 (D)
 DBCSR| MPI: My process id                                                     0
 DBCSR| MPI: Number of processes                                             128
 DBCSR| OMP: Current number of threads                                         1
 DBCSR| OMP: Max number of threads                                             1
 DBCSR| Split modifier for TAS multiplication algorithm                  1.0E+00 (U)


  **** **** ******  **  PROGRAM STARTED AT               2023-02-15 13:40:31.979
 ***** ** ***  *** **   PROGRAM STARTED ON                             nid002129
 **    ****   ******    PROGRAM STARTED BY                                cahart
 ***** **    ** ** **   PROGRAM PROCESS ID                                 52189
  **** **  *******  **  PROGRAM STARTED IN /mnt/lustre/a2fs-work2/work/e05/e05/c
                                           ahart/postdoc/masters/ni/archer2/slab
                                           /optimise/magnetisation/scf_1e-4_temp
                                           -2000_mos-1000_alpha-0.08_beta-1.5_pe
                                           riodic-xyz/search/0.75_0.7

 CP2K| version string:                 CP2K version 2023.1 (Development Version)
 CP2K| source code revision number:                                  git:964cd58
 CP2K| cp2kflags: omp libint fftw3 libxc elpa parallel scalapack xsmm plumed2 mk
 CP2K|            l
 CP2K| is freely available from                            https://www.cp2k.org/
 CP2K| Program compiled at                          Mon 13 Feb 17:05:14 GMT 2023
 CP2K| Program compiled on                                                  ln01
 CP2K| Program compiled for                                              ARCHER2
 CP2K| Data directory path    /work/e05/e05/cahart/cp2k/cp2k-2023.1/cp2k-2023.1-
 CP2K| Input file name                                                  cp2k.inp

 GLOBAL| Force Environment number                                              1
 GLOBAL| Basis set file name                                        BASIS_MOLOPT
 GLOBAL| Potential file name                                      GTH_POTENTIALS
 GLOBAL| MM Potential file name                                     MM_POTENTIAL
 GLOBAL| Coordinate file name                                      __STD_INPUT__
 GLOBAL| Method name                                                        CP2K
 GLOBAL| Project name                                                    Ni_bulk
 GLOBAL| Run type                                                         ENERGY
 GLOBAL| FFT library                                                       FFTW3
 GLOBAL| Diagonalization library                                            ELPA
 GLOBAL| DGEMM library                                                      BLAS
 GLOBAL| Minimum number of eigenvectors for ELPA usage                        16
 GLOBAL| Orthonormality check for eigenvectors                          DISABLED
 GLOBAL| Matrix multiplication library                                 ScaLAPACK
 GLOBAL| All-to-all communication in single precision                          F
 GLOBAL| FFTs using library dependent lengths                                  F
 GLOBAL| Grid backend                                                       AUTO
 GLOBAL| Global print level                                               MEDIUM
 GLOBAL| MPI I/O enabled                                                       T
 GLOBAL| Total number of message passing processes                           128
 GLOBAL| Number of threads for this process                                    1
 GLOBAL| This output is from process                                           0
 GLOBAL| Stack size for threads created by OpenMP (OMP_STACKSIZE)        default
 GLOBAL| CPU model name                          AMD EPYC 7742 64-Core Processor
 GLOBAL| CPUID                                                              1002

 MEMORY| system memory details [Kb]
 MEMORY|                        rank 0           min           max       average
 MEMORY| MemTotal            263528084     263528084     263528084     263528084
 MEMORY| MemFree             239246900     239246900     239246900     239246900
 MEMORY| Buffers                 39292         39292         39292         39292
 MEMORY| Cached                 687808        687808        687808        687808
 MEMORY| Slab                  1526496       1526496       1526496       1526496
 MEMORY| SReclaimable           102356        102356        102356        102356
 MEMORY| MemLikelyFree       240076356     240076356     240076356     240076356


 *** Fundamental physical constants (SI units) ***

 *** Literature: B. J. Mohr and B. N. Taylor,
 ***             CODATA recommended values of the fundamental physical
 ***             constants: 2006, Web Version 5.1
 ***             http://physics.nist.gov/constants

 Speed of light in vacuum [m/s]                             2.99792458000000E+08
 Magnetic constant or permeability of vacuum [N/A**2]       1.25663706143592E-06
 Electric constant or permittivity of vacuum [F/m]          8.85418781762039E-12
 Planck constant (h) [J*s]                                  6.62606896000000E-34
 Planck constant (h-bar) [J*s]                              1.05457162825177E-34
 Elementary charge [C]                                      1.60217648700000E-19
 Electron mass [kg]                                         9.10938215000000E-31
 Electron g factor [ ]                                     -2.00231930436220E+00
 Proton mass [kg]                                           1.67262163700000E-27
 Fine-structure constant                                    7.29735253760000E-03
 Rydberg constant [1/m]                                     1.09737315685270E+07
 Avogadro constant [1/mol]                                  6.02214179000000E+23
 Boltzmann constant [J/K]                                   1.38065040000000E-23
 Atomic mass unit [kg]                                      1.66053878200000E-27
 Bohr radius [m]                                            5.29177208590000E-11

 *** Conversion factors ***

 [u] -> [a.u.]                                              1.82288848426455E+03
 [Angstrom] -> [Bohr] = [a.u.]                              1.88972613288564E+00
 [a.u.] = [Bohr] -> [Angstrom]                              5.29177208590000E-01
 [a.u.] -> [s]                                              2.41888432650478E-17
 [a.u.] -> [fs]                                             2.41888432650478E-02
 [a.u.] -> [J]                                              4.35974393937059E-18
 [a.u.] -> [N]                                              8.23872205491840E-08
 [a.u.] -> [K]                                              3.15774647902944E+05
 [a.u.] -> [kJ/mol]                                         2.62549961709828E+03
 [a.u.] -> [kcal/mol]                                       6.27509468713739E+02
 [a.u.] -> [Pa]                                             2.94210107994716E+13
 [a.u.] -> [bar]                                            2.94210107994716E+08
 [a.u.] -> [atm]                                            2.90362800883016E+08
 [a.u.] -> [eV]                                             2.72113838565563E+01
 [a.u.] -> [Hz]                                             6.57968392072181E+15
 [a.u.] -> [1/cm] (wave numbers)                            2.19474631370540E+05
 [a.u./Bohr**2] -> [1/cm]                                   5.14048714338585E+03
 

 CELL_TOP| Volume [angstrom^3]:                                       983.249569
 CELL_TOP| Vector a [angstrom     7.012     0.000     0.000   |a| =     7.011596
 CELL_TOP| Vector b [angstrom     0.000     7.012     0.000   |b| =     7.011596
 CELL_TOP| Vector c [angstrom     0.000     0.000    20.000   |c| =    20.000000
 CELL_TOP| Angle (b,c), alpha [degree]:                                90.000000
 CELL_TOP| Angle (a,c), beta  [degree]:                                90.000000
 CELL_TOP| Angle (a,b), gamma [degree]:                                90.000000
 CELL_TOP| Numerically orthorhombic:                                         YES
 CELL_TOP| Periodicity                                                       XYZ

 GENERATE|  Preliminary Number of Bonds generated:                             0
 GENERATE|  Achieved consistency in connectivity generation.

 CELL| Volume [angstrom^3]:                                           983.249569
 CELL| Vector a [angstrom]:       7.012     0.000     0.000   |a| =     7.011596
 CELL| Vector b [angstrom]:       0.000     7.012     0.000   |b| =     7.011596
 CELL| Vector c [angstrom]:       0.000     0.000    20.000   |c| =    20.000000
 CELL| Angle (b,c), alpha [degree]:                                    90.000000
 CELL| Angle (a,c), beta  [degree]:                                    90.000000
 CELL| Angle (a,b), gamma [degree]:                                    90.000000
 CELL| Numerically orthorhombic:                                             YES
 CELL| Periodicity                                                           XYZ

 CELL_REF| Volume [angstrom^3]:                                       983.249569
 CELL_REF| Vector a [angstrom     7.012     0.000     0.000   |a| =     7.011596
 CELL_REF| Vector b [angstrom     0.000     7.012     0.000   |b| =     7.011596
 CELL_REF| Vector c [angstrom     0.000     0.000    20.000   |c| =    20.000000
 CELL_REF| Angle (b,c), alpha [degree]:                                90.000000
 CELL_REF| Angle (a,c), beta  [degree]:                                90.000000
 CELL_REF| Angle (a,b), gamma [degree]:                                90.000000
 CELL_REF| Numerically orthorhombic:                                         YES
 CELL_REF| Periodicity                                                       XYZ

 *** WARNING in cryssym.F:165 :: Symmetry library SPGLIB not available ***


 *******************************************************************************
                                    Kpoints
 *******************************************************************************
 BRILLOUIN| K-point scheme                                        Monkhorst-Pack
 BRILLOUIN| K-Point grid                                             4    4    1
 BRILLOUIN| Accuracy in Symmetry determination                      0.100000E-05
 BRILLOUIN| K-Point point group symmetrization                               OFF
 BRILLOUIN| Wavefunction type                                            COMPLEX
 BRILLOUIN| List of Kpoints [2 Pi/Bohr]                                        8
 BRILLOUIN| Number           Weight            X              Y              Z
 BRILLOUIN|     1           0.12500       -0.37500       -0.37500        0.00000
 BRILLOUIN|     2           0.12500       -0.37500       -0.12500        0.00000
 BRILLOUIN|     3           0.12500       -0.37500        0.12500        0.00000
 BRILLOUIN|     4           0.12500       -0.37500        0.37500        0.00000
 BRILLOUIN|     5           0.12500       -0.12500       -0.37500        0.00000
 BRILLOUIN|     6           0.12500       -0.12500       -0.12500        0.00000
 BRILLOUIN|     7           0.12500       -0.12500        0.12500        0.00000
 BRILLOUIN|     8           0.12500       -0.12500        0.37500        0.00000
 *******************************************************************************

 *******************************************************************************
 *******************************************************************************
 **                                                                           **
 **     #####                         ##              ##                      **
 **    ##   ##            ##          ##              ##                      **
 **   ##     ##                       ##            ######                    **
 **   ##     ##  ##   ##  ##   #####  ##  ##   ####   ##    #####    #####    **
 **   ##     ##  ##   ##  ##  ##      ## ##   ##      ##   ##   ##  ##   ##   **
 **   ##  ## ##  ##   ##  ##  ##      ####     ###    ##   ######   ######    **
 **    ##  ###   ##   ##  ##  ##      ## ##      ##   ##   ##       ##        **
 **     #######   #####   ##   #####  ##  ##  ####    ##    #####   ##        **
 **           ##                                                    ##        **
 **                                                                           **
 **                                                ... make the atoms dance   **
 **                                                                           **
 **            Copyright (C) by CP2K developers group (2000-2023)             **
 **                      J. Chem. Phys. 152, 194103 (2020)                    **
 **                                                                           **
 *******************************************************************************

 *** WARNING in qs_environment.F:1456 :: Number of electrons will be ***
 *** overwritten by NELEC_ALPHA and NELEC_BETA, multiplicity will be ***
 *** ignored.                                                        ***

 Number of electrons should be                                               576
 Sum of NELEC_ALPHA and NELEC_BETA is                                    576.000

 *** WARNING in qs_environment.F:1488 :: NELEC_ALPHA is not an integer, ***
 *** many features will not be supported.                               ***


 *** WARNING in qs_environment.F:1500 :: NELEC_BETA is not an integer, ***
 *** many features will not be supported.                              ***


 *** WARNING in qs_environment.F:1532 :: More ADDED_MOs requested for beta ***
 *** spin than available.                                                  ***


 *** WARNING in qs_environment.F:1548 :: More added MOs requested than     ***
 *** available. The full set of unoccupied MOs will be used. Use           ***
 *** 'ADDED_MOS -1' to always use all available MOs and to get rid of this ***
 *** warning.                                                              ***


 DFT| Spin unrestricted (spin-polarized) Kohn-Sham calculation               UKS
 DFT| Multiplicity                                                             1
 DFT| Number of spin states                                                    2
 DFT| Charge                                                                   0
 DFT| Self-interaction correction (SIC)                                       NO
 DFT| Cutoffs: density                                              1.000000E-10
 DFT|          gradient                                             1.000000E-10
 DFT|          tau                                                  1.000000E-10
 DFT|          cutoff_smoothing_range                               0.000000E+00
 DFT| XC density smoothing                                                  NONE
 DFT| XC derivatives                                                          PW

 FUNCTIONAL| PBE:
 FUNCTIONAL| J.P.Perdew, K.Burke, M.Ernzerhof, Phys. Rev. Letter, vol. 77, n 18,
 FUNCTIONAL|  pp. 3865-3868, (1996){spin polarized}                             

 vdW POTENTIAL|                                                   Pair Potential
 vdW POTENTIAL|          DFT-D3 (Version 3.1)
 vdW POTENTIAL|          Potential Form: S. Grimme et al, JCP 132: 154104 (2010)
 vdW POTENTIAL|          Zero Damping
 vdW POTENTIAL|          Cutoff Radius [Bohr]:                             20.00
 vdW POTENTIAL|          s6 Scaling Factor:                               1.0000
 vdW POTENTIAL|          sr6 Scaling Factor:                              1.2170
 vdW POTENTIAL|          s8 Scaling Factor:                               0.7220
 vdW POTENTIAL|          Cutoff for CN calculation:                   0.1000E-05

 QS| Method:                                                                 GPW
 QS| Density plane wave grid type                        NON-SPHERICAL FULLSPACE
 QS| Number of grid levels:                                                    5
 QS| Density cutoff [a.u.]:                                                300.0
 QS| Multi grid cutoff [a.u.]: 1) grid level                               300.0
 QS|                           2) grid level                               100.0
 QS|                           3) grid level                                33.3
 QS|                           4) grid level                                11.1
 QS|                           5) grid level                                 3.7
 QS| Grid level progression factor:                                          3.0
 QS| Relative density cutoff [a.u.]:                                        30.0
 QS| Interaction thresholds: eps_pgf_orb:                                1.0E-06
 QS|                         eps_filter_matrix:                          0.0E+00
 QS|                         eps_core_charge:                            1.0E-14
 QS|                         eps_rho_gspace:                             1.0E-12
 QS|                         eps_rho_rspace:                             1.0E-12
 QS|                         eps_gvg_rspace:                             1.0E-06
 QS|                         eps_ppl:                                    1.0E-02
 QS|                         eps_ppnl:                                   1.0E-08


 ATOMIC KIND INFORMATION

  1. Atomic kind: Ni_i                                  Number of atoms:      16

     Orbital Basis Set                                        DZVP-MOLOPT-SR-GTH

       Number of orbital shell sets:                                           1
       Number of orbital shells:                                               8
       Number of primitive Cartesian functions:                                6
       Number of Cartesian basis functions:                                   31
       Number of spherical basis functions:                                   26
       Norm type:                                                              2

       Normalised Cartesian orbitals:

                        Set   Shell   Orbital            Exponent    Coefficient

                          1       1    2s               10.077428      -0.684558
                                                         5.847736      -0.844524
                                                         2.494033       1.088856
                                                         0.988355       0.395503
                                                         0.344978       0.010224
                                                         0.099466      -0.003250

                          1       2    3s               10.077428       0.096747
                                                         5.847736       0.162504
                                                         2.494033      -0.297192
                                                         0.988355      -0.319752
                                                         0.344978       0.088318
                                                         0.099466       0.118587

                          1       3    4s               10.077428       0.036437
                                                         5.847736      -0.381480
                                                         2.494033       0.003759
                                                         0.988355      -1.048256
                                                         0.344978       0.855825
                                                         0.099466      -0.176350

                          1       4    3px              10.077428      -3.133913
                                                         5.847736       3.027656
                                                         2.494033       2.353227
                                                         0.988355       0.554184
                                                         0.344978       0.019462
                                                         0.099466      -0.000291
                          1       4    3py              10.077428      -3.133913
                                                         5.847736       3.027656
                                                         2.494033       2.353227
                                                         0.988355       0.554184
                                                         0.344978       0.019462
                                                         0.099466      -0.000291
                          1       4    3pz              10.077428      -3.133913
                                                         5.847736       3.027656
                                                         2.494033       2.353227
                                                         0.988355       0.554184
                                                         0.344978       0.019462
                                                         0.099466      -0.000291

                          1       5    4px              10.077428      -0.112729
                                                         5.847736      -0.114008
                                                         2.494033      -0.347303
                                                         0.988355      -0.110323
                                                         0.344978       0.154096
                                                         0.099466       0.058386
                          1       5    4py              10.077428      -0.112729
                                                         5.847736      -0.114008
                                                         2.494033      -0.347303
                                                         0.988355      -0.110323
                                                         0.344978       0.154096
                                                         0.099466       0.058386
                          1       5    4pz              10.077428      -0.112729
                                                         5.847736      -0.114008
                                                         2.494033      -0.347303
                                                         0.988355      -0.110323
                                                         0.344978       0.154096
                                                         0.099466       0.058386

                          1       6    4dx2             10.077428       8.232726
                                                         5.847736       9.105758
                                                         2.494033       2.849835
                                                         0.988355       0.554319
                                                         0.344978       0.067245
                                                         0.099466       0.001940
                          1       6    4dxy             10.077428      14.259500
                                                         5.847736      15.771636
                                                         2.494033       4.936060
                                                         0.988355       0.960109
                                                         0.344978       0.116472
                                                         0.099466       0.003360
                          1       6    4dxz             10.077428      14.259500
                                                         5.847736      15.771636
                                                         2.494033       4.936060
                                                         0.988355       0.960109
                                                         0.344978       0.116472
                                                         0.099466       0.003360
                          1       6    4dy2             10.077428       8.232726
                                                         5.847736       9.105758
                                                         2.494033       2.849835
                                                         0.988355       0.554319
                                                         0.344978       0.067245
                                                         0.099466       0.001940
                          1       6    4dyz             10.077428      14.259500
                                                         5.847736      15.771636
                                                         2.494033       4.936060
                                                         0.988355       0.960109
                                                         0.344978       0.116472
                                                         0.099466       0.003360
                          1       6    4dz2             10.077428       8.232726
                                                         5.847736       9.105758
                                                         2.494033       2.849835
                                                         0.988355       0.554319
                                                         0.344978       0.067245
                                                         0.099466       0.001940

                          1       7    5dx2             10.077428      -2.715373
                                                         5.847736      -4.020640
                                                         2.494033      -1.397569
                                                         0.988355      -0.076143
                                                         0.344978       0.033435
                                                         0.099466       0.026032
                          1       7    5dxy             10.077428      -4.703164
                                                         5.847736      -6.963952
                                                         2.494033      -2.420661
                                                         0.988355      -0.131883
                                                         0.344978       0.057911
                                                         0.099466       0.045088
                          1       7    5dxz             10.077428      -4.703164
                                                         5.847736      -6.963952
                                                         2.494033      -2.420661
                                                         0.988355      -0.131883
                                                         0.344978       0.057911
                                                         0.099466       0.045088
                          1       7    5dy2             10.077428      -2.715373
                                                         5.847736      -4.020640
                                                         2.494033      -1.397569
                                                         0.988355      -0.076143
                                                         0.344978       0.033435
                                                         0.099466       0.026032
                          1       7    5dyz             10.077428      -4.703164
                                                         5.847736      -6.963952
                                                         2.494033      -2.420661
                                                         0.988355      -0.131883
                                                         0.344978       0.057911
                                                         0.099466       0.045088
                          1       7    5dz2             10.077428      -2.715373
                                                         5.847736      -4.020640
                                                         2.494033      -1.397569
                                                         0.988355      -0.076143
                                                         0.344978       0.033435
                                                         0.099466       0.026032

                          1       8    5fx3             10.077428      -0.467694
                                                         5.847736       0.618100
                                                         2.494033       0.066069
                                                         0.988355       0.262898
                                                         0.344978       0.004720
                                                         0.099466       0.007748
                          1       8    5fx2y            10.077428      -1.045795
                                                         5.847736       1.382114
                                                         2.494033       0.147734
                                                         0.988355       0.587859
                                                         0.344978       0.010555
                                                         0.099466       0.017325
                          1       8    5fx2z            10.077428      -1.045795
                                                         5.847736       1.382114
                                                         2.494033       0.147734
                                                         0.988355       0.587859
                                                         0.344978       0.010555
                                                         0.099466       0.017325
                          1       8    5fxy2            10.077428      -1.045795
                                                         5.847736       1.382114
                                                         2.494033       0.147734
                                                         0.988355       0.587859
                                                         0.344978       0.010555
                                                         0.099466       0.017325
                          1       8    5fxyz            10.077428      -1.811371
                                                         5.847736       2.393892
                                                         2.494033       0.255883
                                                         0.988355       1.018201
                                                         0.344978       0.018282
                                                         0.099466       0.030008
                          1       8    5fxz2            10.077428      -1.045795
                                                         5.847736       1.382114
                                                         2.494033       0.147734
                                                         0.988355       0.587859
                                                         0.344978       0.010555
                                                         0.099466       0.017325
                          1       8    5fy3             10.077428      -0.467694
                                                         5.847736       0.618100
                                                         2.494033       0.066069
                                                         0.988355       0.262898
                                                         0.344978       0.004720
                                                         0.099466       0.007748
                          1       8    5fy2z            10.077428      -1.045795
                                                         5.847736       1.382114
                                                         2.494033       0.147734
                                                         0.988355       0.587859
                                                         0.344978       0.010555
                                                         0.099466       0.017325
                          1       8    5fyz2            10.077428      -1.045795
                                                         5.847736       1.382114
                                                         2.494033       0.147734
                                                         0.988355       0.587859
                                                         0.344978       0.010555
                                                         0.099466       0.017325
                          1       8    5fz3             10.077428      -0.467694
                                                         5.847736       0.618100
                                                         2.494033       0.066069
                                                         0.988355       0.262898
                                                         0.344978       0.004720
                                                         0.099466       0.007748

       Atomic covalent radius [Angstrom]:                                  1.150

       Atomic van der Waals radius [Angstrom]:                             1.630

     GTH Potential information for                                   GTH-PBE-q18

       Description:                       Goedecker-Teter-Hutter pseudopotential
                                           Goedecker et al., PRB 54, 1703 (1996)
                                          Hartwigsen et al., PRB 58, 3641 (1998)
                                                      Krack, TCA 114, 145 (2005)

       Gaussian exponent of the core charge distribution:               4.081633
       Electronic configuration (s p d ...):                           4   6   8

       Parameters of the local part of the GTH pseudopotential:

                          rloc        C1          C2          C3          C4
                        0.350000    2.102166    0.648484

       Parameters of the non-local part of the GTH pseudopotential:

                   l      r(l)      h(i,j,l)

                   0    0.261295    0.622658    9.970227
                                    9.970227  -12.871507
                   1    0.224253  -11.142708   12.429566
                                   12.429566  -14.706861
                   2    0.215348  -12.628146

  2. Atomic kind: Ni_b                                  Number of atoms:      16

     Orbital Basis Set                                        DZVP-MOLOPT-SR-GTH

       Number of orbital shell sets:                                           1
       Number of orbital shells:                                               8
       Number of primitive Cartesian functions:                                6
       Number of Cartesian basis functions:                                   31
       Number of spherical basis functions:                                   26
       Norm type:                                                              2

       Normalised Cartesian orbitals:

                        Set   Shell   Orbital            Exponent    Coefficient

                          1       1    2s               10.077428      -0.684558
                                                         5.847736      -0.844524
                                                         2.494033       1.088856
                                                         0.988355       0.395503
                                                         0.344978       0.010224
                                                         0.099466      -0.003250

                          1       2    3s               10.077428       0.096747
                                                         5.847736       0.162504
                                                         2.494033      -0.297192
                                                         0.988355      -0.319752
                                                         0.344978       0.088318
                                                         0.099466       0.118587

                          1       3    4s               10.077428       0.036437
                                                         5.847736      -0.381480
                                                         2.494033       0.003759
                                                         0.988355      -1.048256
                                                         0.344978       0.855825
                                                         0.099466      -0.176350

                          1       4    3px              10.077428      -3.133913
                                                         5.847736       3.027656
                                                         2.494033       2.353227
                                                         0.988355       0.554184
                                                         0.344978       0.019462
                                                         0.099466      -0.000291
                          1       4    3py              10.077428      -3.133913
                                                         5.847736       3.027656
                                                         2.494033       2.353227
                                                         0.988355       0.554184
                                                         0.344978       0.019462
                                                         0.099466      -0.000291
                          1       4    3pz              10.077428      -3.133913
                                                         5.847736       3.027656
                                                         2.494033       2.353227
                                                         0.988355       0.554184
                                                         0.344978       0.019462
                                                         0.099466      -0.000291

                          1       5    4px              10.077428      -0.112729
                                                         5.847736      -0.114008
                                                         2.494033      -0.347303
                                                         0.988355      -0.110323
                                                         0.344978       0.154096
                                                         0.099466       0.058386
                          1       5    4py              10.077428      -0.112729
                                                         5.847736      -0.114008
                                                         2.494033      -0.347303
                                                         0.988355      -0.110323
                                                         0.344978       0.154096
                                                         0.099466       0.058386
                          1       5    4pz              10.077428      -0.112729
                                                         5.847736      -0.114008
                                                         2.494033      -0.347303
                                                         0.988355      -0.110323
                                                         0.344978       0.154096
                                                         0.099466       0.058386

                          1       6    4dx2             10.077428       8.232726
                                                         5.847736       9.105758
                                                         2.494033       2.849835
                                                         0.988355       0.554319
                                                         0.344978       0.067245
                                                         0.099466       0.001940
                          1       6    4dxy             10.077428      14.259500
                                                         5.847736      15.771636
                                                         2.494033       4.936060
                                                         0.988355       0.960109
                                                         0.344978       0.116472
                                                         0.099466       0.003360
                          1       6    4dxz             10.077428      14.259500
                                                         5.847736      15.771636
                                                         2.494033       4.936060
                                                         0.988355       0.960109
                                                         0.344978       0.116472
                                                         0.099466       0.003360
                          1       6    4dy2             10.077428       8.232726
                                                         5.847736       9.105758
                                                         2.494033       2.849835
                                                         0.988355       0.554319
                                                         0.344978       0.067245
                                                         0.099466       0.001940
                          1       6    4dyz             10.077428      14.259500
                                                         5.847736      15.771636
                                                         2.494033       4.936060
                                                         0.988355       0.960109
                                                         0.344978       0.116472
                                                         0.099466       0.003360
                          1       6    4dz2             10.077428       8.232726
                                                         5.847736       9.105758
                                                         2.494033       2.849835
                                                         0.988355       0.554319
                                                         0.344978       0.067245
                                                         0.099466       0.001940

                          1       7    5dx2             10.077428      -2.715373
                                                         5.847736      -4.020640
                                                         2.494033      -1.397569
                                                         0.988355      -0.076143
                                                         0.344978       0.033435
                                                         0.099466       0.026032
                          1       7    5dxy             10.077428      -4.703164
                                                         5.847736      -6.963952
                                                         2.494033      -2.420661
                                                         0.988355      -0.131883
                                                         0.344978       0.057911
                                                         0.099466       0.045088
                          1       7    5dxz             10.077428      -4.703164
                                                         5.847736      -6.963952
                                                         2.494033      -2.420661
                                                         0.988355      -0.131883
                                                         0.344978       0.057911
                                                         0.099466       0.045088
                          1       7    5dy2             10.077428      -2.715373
                                                         5.847736      -4.020640
                                                         2.494033      -1.397569
                                                         0.988355      -0.076143
                                                         0.344978       0.033435
                                                         0.099466       0.026032
                          1       7    5dyz             10.077428      -4.703164
                                                         5.847736      -6.963952
                                                         2.494033      -2.420661
                                                         0.988355      -0.131883
                                                         0.344978       0.057911
                                                         0.099466       0.045088
                          1       7    5dz2             10.077428      -2.715373
                                                         5.847736      -4.020640
                                                         2.494033      -1.397569
                                                         0.988355      -0.076143
                                                         0.344978       0.033435
                                                         0.099466       0.026032

                          1       8    5fx3             10.077428      -0.467694
                                                         5.847736       0.618100
                                                         2.494033       0.066069
                                                         0.988355       0.262898
                                                         0.344978       0.004720
                                                         0.099466       0.007748
                          1       8    5fx2y            10.077428      -1.045795
                                                         5.847736       1.382114
                                                         2.494033       0.147734
                                                         0.988355       0.587859
                                                         0.344978       0.010555
                                                         0.099466       0.017325
                          1       8    5fx2z            10.077428      -1.045795
                                                         5.847736       1.382114
                                                         2.494033       0.147734
                                                         0.988355       0.587859
                                                         0.344978       0.010555
                                                         0.099466       0.017325
                          1       8    5fxy2            10.077428      -1.045795
                                                         5.847736       1.382114
                                                         2.494033       0.147734
                                                         0.988355       0.587859
                                                         0.344978       0.010555
                                                         0.099466       0.017325
                          1       8    5fxyz            10.077428      -1.811371
                                                         5.847736       2.393892
                                                         2.494033       0.255883
                                                         0.988355       1.018201
                                                         0.344978       0.018282
                                                         0.099466       0.030008
                          1       8    5fxz2            10.077428      -1.045795
                                                         5.847736       1.382114
                                                         2.494033       0.147734
                                                         0.988355       0.587859
                                                         0.344978       0.010555
                                                         0.099466       0.017325
                          1       8    5fy3             10.077428      -0.467694
                                                         5.847736       0.618100
                                                         2.494033       0.066069
                                                         0.988355       0.262898
                                                         0.344978       0.004720
                                                         0.099466       0.007748
                          1       8    5fy2z            10.077428      -1.045795
                                                         5.847736       1.382114
                                                         2.494033       0.147734
                                                         0.988355       0.587859
                                                         0.344978       0.010555
                                                         0.099466       0.017325
                          1       8    5fyz2            10.077428      -1.045795
                                                         5.847736       1.382114
                                                         2.494033       0.147734
                                                         0.988355       0.587859
                                                         0.344978       0.010555
                                                         0.099466       0.017325
                          1       8    5fz3             10.077428      -0.467694
                                                         5.847736       0.618100
                                                         2.494033       0.066069
                                                         0.988355       0.262898
                                                         0.344978       0.004720
                                                         0.099466       0.007748

       Atomic covalent radius [Angstrom]:                                  1.150

       Atomic van der Waals radius [Angstrom]:                             1.630

     GTH Potential information for                                   GTH-PBE-q18

       Description:                       Goedecker-Teter-Hutter pseudopotential
                                           Goedecker et al., PRB 54, 1703 (1996)
                                          Hartwigsen et al., PRB 58, 3641 (1998)
                                                      Krack, TCA 114, 145 (2005)

       Gaussian exponent of the core charge distribution:               4.081633
       Electronic configuration (s p d ...):                           4   6   8

       Parameters of the local part of the GTH pseudopotential:

                          rloc        C1          C2          C3          C4
                        0.350000    2.102166    0.648484

       Parameters of the non-local part of the GTH pseudopotential:

                   l      r(l)      h(i,j,l)

                   0    0.261295    0.622658    9.970227
                                    9.970227  -12.871507
                   1    0.224253  -11.142708   12.429566
                                   12.429566  -14.706861
                   2    0.215348  -12.628146


 MOLECULE KIND INFORMATION


 All atoms are their own molecule, skipping detailed information


 TOTAL NUMBERS AND MAXIMUM NUMBERS

  Total number of            - Atomic kinds:                                   2
                             - Atoms:                                         32
                             - Shell sets:                                    32
                             - Shells:                                       256
                             - Primitive Cartesian functions:                192
                             - Cartesian basis functions:                    992
                             - Spherical basis functions:                    832

  Maximum angular momentum of- Orbital basis functions:                        3
                             - Local part of the GTH pseudopotential:          2
                             - Non-local part of the GTH pseudopotential:      3


 MODULE QUICKSTEP: ATOMIC COORDINATES IN ANGSTROM

   Atom Kind Element         X             Y             Z       Z(eff)     Mass
      1    1 Ni   28      0.876298      0.876298      7.370500  18.0000  58.6934
      2    1 Ni   28      0.876298      4.382298      7.370500  18.0000  58.6934
      3    1 Ni   28      2.629298      2.629298      7.370500  18.0000  58.6934
      4    1 Ni   28      2.629298      6.135298      7.370500  18.0000  58.6934
      5    1 Ni   28      4.382298      0.876298      7.370500  18.0000  58.6934
      6    1 Ni   28      4.382298      4.382298      7.370500  18.0000  58.6934
      7    1 Ni   28      6.135298      2.629298      7.370500  18.0000  58.6934
      8    1 Ni   28      6.135298      6.135298      7.370500  18.0000  58.6934
      9    2 Ni   28      0.876298      2.629298      9.123500  18.0000  58.6934
     10    2 Ni   28      0.876298      6.135298      9.123500  18.0000  58.6934
     11    2 Ni   28      2.629298      0.876298      9.123500  18.0000  58.6934
     12    2 Ni   28      2.629298      4.382298      9.123500  18.0000  58.6934
     13    2 Ni   28      4.382298      2.629298      9.123500  18.0000  58.6934
     14    2 Ni   28      4.382298      6.135298      9.123500  18.0000  58.6934
     15    2 Ni   28      6.135298      0.876298      9.123500  18.0000  58.6934
     16    2 Ni   28      6.135298      4.382298      9.123500  18.0000  58.6934
     17    2 Ni   28      0.876298      0.876298     10.876500  18.0000  58.6934
     18    2 Ni   28      0.876298      4.382298     10.876500  18.0000  58.6934
     19    2 Ni   28      2.629298      2.629298     10.876500  18.0000  58.6934
     20    2 Ni   28      2.629298      6.135298     10.876500  18.0000  58.6934
     21    2 Ni   28      4.382298      0.876298     10.876500  18.0000  58.6934
     22    2 Ni   28      4.382298      4.382298     10.876500  18.0000  58.6934
     23    2 Ni   28      6.135298      2.629298     10.876500  18.0000  58.6934
     24    2 Ni   28      6.135298      6.135298     10.876500  18.0000  58.6934
     25    1 Ni   28      0.876298      2.629298     12.629500  18.0000  58.6934
     26    1 Ni   28      0.876298      6.135298     12.629500  18.0000  58.6934
     27    1 Ni   28      2.629298      0.876298     12.629500  18.0000  58.6934
     28    1 Ni   28      2.629298      4.382298     12.629500  18.0000  58.6934
     29    1 Ni   28      4.382298      2.629298     12.629500  18.0000  58.6934
     30    1 Ni   28      4.382298      6.135298     12.629500  18.0000  58.6934
     31    1 Ni   28      6.135298      0.876298     12.629500  18.0000  58.6934
     32    1 Ni   28      6.135298      4.382298     12.629500  18.0000  58.6934



 SCF PARAMETERS         Density guess:                                    ATOMIC
                        --------------------------------------------------------
                        max_scf:                                             500
                        max_scf_history:                                       0
                        max_diis:                                              4
                        --------------------------------------------------------
                        eps_scf:                                        1.00E-04
                        eps_scf_history:                                0.00E+00
                        eps_diis:                                       1.00E-01
                        eps_eigval:                                     1.00E-05
                        --------------------------------------------------------
                        level_shift [a.u.]:                             0.000000
                        added MOs                                       532  555
                        --------------------------------------------------------
                        Mixing method:                            BROYDEN_MIXING
                                                charge density mixing in g-space
                        --------------------------------------------------------
                        Smear method:                                FERMI_DIRAC
                        Electronic temperature [K]:                       2000.0
                        Electronic temperature [a.u.]:                  6.33E-03
                        Accuracy threshold:                             1.00E-10
                        --------------------------------------------------------
                        No outer SCF

 PW_GRID| Information for grid number                                          1
 PW_GRID| Grid distributed over                                   128 processors
 PW_GRID| Real space group dimensions                                     8   16
 PW_GRID| the grid is blocked:                                               YES
 PW_GRID| Cutoff [a.u.]                                                    300.0
 PW_GRID| spherical cutoff:                                                   NO
 PW_GRID|   Bounds   1            -54      53                Points:         108
 PW_GRID|   Bounds   2            -54      53                Points:         108
 PW_GRID|   Bounds   3           -150     149                Points:         300
 PW_GRID| Volume element (a.u.^3)  0.1896E-02     Volume (a.u.^3)      6635.2971
 PW_GRID| Grid span                                                    FULLSPACE
 PW_GRID|   Distribution                         Average         Max         Min
 PW_GRID|   G-Vectors                            27337.5       28728       25272
 PW_GRID|   G-Rays                                 253.1         266         234
 PW_GRID|   Real Space Points                    27337.5       28728       25272

 PW_GRID| Information for grid number                                          2
 PW_GRID| Number of the reference grid                                         1
 PW_GRID| Grid distributed over                                   128 processors
 PW_GRID| Real space group dimensions                                     8   16
 PW_GRID| the grid is blocked:                                                NO
 PW_GRID| Cutoff [a.u.]                                                    100.0
 PW_GRID| spherical cutoff:                                                   NO
 PW_GRID|   Bounds   1            -30      29                Points:          60
 PW_GRID|   Bounds   2            -30      29                Points:          60
 PW_GRID|   Bounds   3            -90      89                Points:         180
 PW_GRID| Volume element (a.u.^3)  0.1024E-01     Volume (a.u.^3)      6635.2971
 PW_GRID| Grid span                                                    FULLSPACE
 PW_GRID|   Distribution                         Average         Max         Min
 PW_GRID|   G-Vectors                             5062.5       15960           0
 PW_GRID|   G-Rays                                  84.4         266           0
 PW_GRID|   Real Space Points                     5062.5        5760        3780

 PW_GRID| Information for grid number                                          3
 PW_GRID| Number of the reference grid                                         1
 PW_GRID| Grid distributed over                                   128 processors
 PW_GRID| Real space group dimensions                                     8   16
 PW_GRID| the grid is blocked:                                                NO
 PW_GRID| Cutoff [a.u.]                                                     33.3
 PW_GRID| spherical cutoff:                                                   NO
 PW_GRID|   Bounds   1            -18      17                Points:          36
 PW_GRID|   Bounds   2            -18      17                Points:          36
 PW_GRID|   Bounds   3            -50      49                Points:         100
 PW_GRID| Volume element (a.u.^3)  0.5120E-01     Volume (a.u.^3)      6635.2971
 PW_GRID| Grid span                                                    FULLSPACE
 PW_GRID|   Distribution                         Average         Max         Min
 PW_GRID|   G-Vectors                             1012.5        9576           0
 PW_GRID|   G-Rays                                  28.1         266           0
 PW_GRID|   Real Space Points                     1012.5        1500         800

 PW_GRID| Information for grid number                                          4
 PW_GRID| Number of the reference grid                                         1
 PW_GRID| Grid distributed over                                   128 processors
 PW_GRID| Real space group dimensions                                     8   16
 PW_GRID| the grid is blocked:                                                NO
 PW_GRID| Cutoff [a.u.]                                                     11.1
 PW_GRID| spherical cutoff:                                                   NO
 PW_GRID|   Bounds   1            -10       9                Points:          20
 PW_GRID|   Bounds   2            -10       9                Points:          20
 PW_GRID|   Bounds   3            -30      29                Points:          60
 PW_GRID| Volume element (a.u.^3)  0.2765         Volume (a.u.^3)      6635.2971
 PW_GRID| Grid span                                                    FULLSPACE
 PW_GRID|   Distribution                         Average         Max         Min
 PW_GRID|   G-Vectors                              187.5        3800           0
 PW_GRID|   G-Rays                                   9.4         190           0
 PW_GRID|   Real Space Points                      187.5         360         120

 PW_GRID| Information for grid number                                          5
 PW_GRID| Number of the reference grid                                         1
 PW_GRID| Grid distributed over                                   128 processors
 PW_GRID| Real space group dimensions                                     8   16
 PW_GRID| the grid is blocked:                                                NO
 PW_GRID| Cutoff [a.u.]                                                      3.7
 PW_GRID| spherical cutoff:                                                   NO
 PW_GRID|   Bounds   1             -6       5                Points:          12
 PW_GRID|   Bounds   2             -6       5                Points:          12
 PW_GRID|   Bounds   3            -18      17                Points:          36
 PW_GRID| Volume element (a.u.^3)   1.280         Volume (a.u.^3)      6635.2971
 PW_GRID| Grid span                                                    FULLSPACE
 PW_GRID|   Distribution                         Average         Max         Min
 PW_GRID|   G-Vectors                               40.5        1296           0
 PW_GRID|   G-Rays                                   3.4         108           0
 PW_GRID|   Real Space Points                       40.5          72           0

 POISSON| Solver                                                        PERIODIC
 POISSON| Periodicity                                                        XYZ

 RS_GRID| Information for grid number                                          1
 RS_GRID|   Bounds   1            -54      53                Points:         108
 RS_GRID|   Bounds   2            -54      53                Points:         108
 RS_GRID|   Bounds   3           -150     149                Points:         300
 RS_GRID| Real space distribution over                                  8 groups
 RS_GRID| Real space distribution along direction                              2
 RS_GRID| Border size                                                         28
 RS_GRID| Real space distribution over                                 16 groups
 RS_GRID| Real space distribution along direction                              3
 RS_GRID| Border size                                                         28
 RS_GRID|   Distribution                         Average         Max         Min
 RS_GRID|   Planes                                  69.5          70          69
 RS_GRID|   Distribution                         Average         Max         Min
 RS_GRID|   Planes                                  74.8          75          74

 RS_GRID| Information for grid number                                          2
 RS_GRID|   Bounds   1            -30      29                Points:          60
 RS_GRID|   Bounds   2            -30      29                Points:          60
 RS_GRID|   Bounds   3            -90      89                Points:         180
 RS_GRID| Real space fully replicated
 RS_GRID| Group size                                                           1

 RS_GRID| Information for grid number                                          3
 RS_GRID|   Bounds   1            -18      17                Points:          36
 RS_GRID|   Bounds   2            -18      17                Points:          36
 RS_GRID|   Bounds   3            -50      49                Points:         100
 RS_GRID| Real space fully replicated
 RS_GRID| Group size                                                           1

 RS_GRID| Information for grid number                                          4
 RS_GRID|   Bounds   1            -10       9                Points:          20
 RS_GRID|   Bounds   2            -10       9                Points:          20
 RS_GRID|   Bounds   3            -30      29                Points:          60
 RS_GRID| Real space fully replicated
 RS_GRID| Group size                                                           1

 RS_GRID| Information for grid number                                          5
 RS_GRID|   Bounds   1             -6       5                Points:          12
 RS_GRID|   Bounds   2             -6       5                Points:          12
 RS_GRID|   Bounds   3            -18      17                Points:          36
 RS_GRID| Real space fully replicated
 RS_GRID| Group size                                                           1

 Spin 1

 Number of electrons:                                                        299.600
 Number of occupied orbitals:                                                300
 Number of molecular orbitals:                                               832

 Spin 2

 Number of electrons:                                                        276.400
 Number of occupied orbitals:                                                277
 Number of molecular orbitals:                                               832

 Number of orbital functions:                                                832
 Number of independent orbital functions:                                    832

 Extrapolation method: initial_guess

 Atomic guess: The first density matrix is obtained in terms of atomic orbitals
               and electronic configurations assigned to each atomic kind

 Guess for atomic kind: Ni_i

 Electronic structure
    Total number of core electrons                                         10.00
    Total number of valence electrons                                      18.00
    Total number of electrons                                              28.00
    Multiplicity                                                         doublet
    Alpha Electrons
    S   [  1.00  1.00] 1.00  1.00
    P   [  3.00] 3.00
    D      4.35
    Beta Electrons
    S   [  1.00  1.00] 1.00  1.00
    P   [  3.00] 3.00
    D      3.65


 *******************************************************************************
                  Iteration          Convergence                     Energy [au]
 *******************************************************************************
                          1         1.51729                    -167.067424631347
                          2         15.3902                    -156.642654318634
                          3         2.33433                    -168.319355313541
                          4        0.206730                    -168.609905008081
                          5        0.814175E-01                -168.612873080494
                          6        0.173318E-01                -168.613470181066
                          7        0.290432E-02                -168.613543571401
                          8        0.311825E-02                -168.613543401474
                          9        0.179670E-03                -168.613544404477
                         10        0.169386E-02                -168.613544207811
                         11        0.473341E-03                -168.613544360253
                         12        0.165417E-03                -168.613544400419
                         13        0.162622E-03                -168.613544401489
                         14        0.158325E-03                -168.613544403900
                         15        0.177007E-03                -168.613544402509
                         16        0.138916E-03                -168.613544404900
                         17        0.934549E-04                -168.613544406149
                         18        0.119916E-03                -168.613544405789
                         19        0.131607E-03                -168.613544405591
                         20        0.169309E-03                -168.613544404773
                         21        0.551337E-04                -168.613544406656
                         22        0.382664E-04                -168.613544406759
                         23        0.378942E-04                -168.613544406765
                         24        0.381089E-04                -168.613544406765
                         25        0.390835E-04                -168.613544406759
                         26        0.308614E-04                -168.613544406841
                         27        0.205044E-04                -168.613544406892
                         28        0.200942E-04                -168.613544406893
                         29        0.199375E-04                -168.613544406893
                         30        0.200198E-04                -168.613544406894
                         31        0.161325E-04                -168.613544406903
                         32        0.330614E-05                -168.613544406925
                         33        0.238713E-05                -168.613544406926
                         34        0.265439E-05                -168.613544406926
                         35        0.277073E-05                -168.613544406926
                         36        0.335175E-05                -168.613544406926
                         37        0.148809E-05                -168.613544406927
                         38        0.133447E-05                -168.613544406927
                         39        0.918735E-06                -168.613544406927

 Energy components [Hartree]           Total Energy ::         -168.613544406927
                                        Band Energy ::          -26.569761966525
                                     Kinetic Energy ::           97.306723392622
                                   Potential Energy ::         -265.920267799548
                                      Virial (-V/T) ::            2.732804666812
                                        Core Energy ::         -299.567979157577
                                          XC Energy ::          -16.227189041387
                                     Coulomb Energy ::          147.181623792037
                       Total Pseudopotential Energy ::         -396.961043505191
                       Local Pseudopotential Energy ::         -362.648291121960
                    Nonlocal Pseudopotential Energy ::          -34.312752383230
                                        Confinement ::            0.863409549921

 Orbital energies  State     Spin  L     Occupation   Energy[a.u.]    Energy[eV]

                       1    alpha  0          1.000      -4.172666   -113.544030
                       2    alpha  0          1.000      -0.181431     -4.936983
                       1     beta  0          1.000      -4.140640   -112.672541
                       2     beta  0          1.000      -0.176372     -4.799339

                       1    alpha  1          3.000      -2.578739    -70.171064
                       1     beta  1          3.000      -2.547579    -69.323162

                       1    alpha  2          4.350      -0.327039     -8.899191
                       1     beta  2          3.650      -0.300569     -8.178887


 Total Electron Density at R=0:                                         0.030422

 Guess for atomic kind: Ni_b

 Electronic structure
    Total number of core electrons                                         10.00
    Total number of valence electrons                                      18.00
    Total number of electrons                                              28.00
    Multiplicity                                                         doublet
    Alpha Electrons
    S   [  1.00  1.00] 1.00  1.00
    P   [  3.00] 3.00
    D      4.38
    Beta Electrons
    S   [  1.00  1.00] 1.00  1.00
    P   [  3.00] 3.00
    D      3.62


 *******************************************************************************
                  Iteration          Convergence                     Energy [au]
 *******************************************************************************
                          1         1.51739                    -167.068153276952
                          2         15.4920                    -156.649362433064
                          3         2.35381                    -168.319969801036
                          4        0.211005                    -168.610503058951
                          5        0.839626E-01                -168.613507594230
                          6        0.188677E-01                -168.614144114300
                          7        0.200536E-02                -168.614229358281
                          8        0.229440E-02                -168.614229242199
                          9        0.703541E-04                -168.614229802920
                         10        0.129980E-02                -168.614229687725
                         11        0.608373E-03                -168.614229778028
                         12        0.137097E-03                -168.614229799548
                         13        0.123889E-03                -168.614229801454
                         14        0.107288E-03                -168.614229802690
                         15        0.111556E-03                -168.614229802567
                         16        0.100219E-03                -168.614229802793
                         17        0.464657E-04                -168.614229803809
                         18        0.385916E-04                -168.614229803847
                         19        0.752867E-04                -168.614229803621
                         20        0.596803E-04                -168.614229803750
                         21        0.509969E-04                -168.614229803814
                         22        0.174655E-04                -168.614229803982
                         23        0.196403E-04                -168.614229803995
                         24        0.194239E-04                -168.614229803999
                         25        0.212890E-04                -168.614229803994
                         26        0.120822E-04                -168.614229804033
                         27        0.396577E-05                -168.614229804039
                         28        0.349092E-05                -168.614229804040
                         29        0.197452E-05                -168.614229804041
                         30        0.224721E-05                -168.614229804042
                         31        0.199956E-05                -168.614229804042
                         32        0.768126E-06                -168.614229804042

 Energy components [Hartree]           Total Energy ::         -168.614229804042
                                        Band Energy ::          -26.570094035547
                                     Kinetic Energy ::           97.307657804977
                                   Potential Energy ::         -265.921887609019
                                      Virial (-V/T) ::            2.732795070887
                                        Core Energy ::         -299.568528774602
                                          XC Energy ::          -16.227974193118
                                     Coulomb Energy ::          147.182273163677
                       Total Pseudopotential Energy ::         -396.962527617964
                       Local Pseudopotential Energy ::         -362.649286194602
                    Nonlocal Pseudopotential Energy ::          -34.313241423362
                                        Confinement ::            0.863410383853

 Orbital energies  State     Spin  L     Occupation   Energy[a.u.]    Energy[eV]

                       1    alpha  0          1.000      -4.173737   -113.573158
                       2    alpha  0          1.000      -0.181605     -4.941724
                       1     beta  0          1.000      -4.139423   -112.639418
                       2     beta  0          1.000      -0.176185     -4.794242

                       1    alpha  1          3.000      -2.579781    -70.199408
                       1     beta  1          3.000      -2.546395    -69.290937

                       1    alpha  2          4.375      -0.327928     -8.923379
                       1     beta  2          3.625      -0.299567     -8.151632


 Total Electron Density at R=0:                                         0.030420

 Spin 1
 Re-scaling the density matrix to get the right number of electrons for spin 1
                  # Electrons              Trace(P)               Scaling factor
                        299.600             299.600                        1.000

 Spin 2
 Re-scaling the density matrix to get the right number of electrons for spin 2
[...]
   133 Broy./Diag. 0.80E-01    1.5     0.00107288     -5417.6123772262 -8.09E-02
   134 Broy./Diag. 0.80E-01    1.5     0.00289879     -5417.5993942181  1.30E-02
   135 Broy./Diag. 0.80E-01    1.5     0.00447941     -5417.6436862040 -4.43E-02
   136 Broy./Diag. 0.80E-01    1.5     0.00605232     -5417.5937017051  5.00E-02
   137 Broy./Diag. 0.80E-01    1.5     0.00145061     -5417.6108567409 -1.72E-02
   138 Broy./Diag. 0.80E-01    1.5     0.00502144     -5417.6168172156 -5.96E-03
   139 Broy./Diag. 0.80E-01    1.5     0.00465882     -5417.5699666950  4.69E-02
   140 Broy./Diag. 0.80E-01    1.5     0.00247012     -5417.6235794432 -5.36E-02
   141 Broy./Diag. 0.80E-01    1.5     0.00345606     -5417.5266582467  9.69E-02
   142 Broy./Diag. 0.80E-01    1.5     0.00091536     -5417.4842030863  4.25E-02
   143 Broy./Diag. 0.80E-01    1.5     0.00535956     -5417.5343025134 -5.01E-02
   144 Broy./Diag. 0.80E-01    1.5     0.00505292     -5417.4685059120  6.58E-02
   145 Broy./Diag. 0.80E-01    1.5     0.00528061     -5417.5767172338 -1.08E-01
   146 Broy./Diag. 0.80E-01    1.5     0.00611358     -5417.5443671174  3.24E-02
   147 Broy./Diag. 0.80E-01    1.5     0.00721368     -5417.5738428967 -2.95E-02
   148 Broy./Diag. 0.80E-01    1.5     0.01166993     -5417.5066725924  6.72E-02
   149 Broy./Diag. 0.80E-01    1.5     0.00209475     -5417.7341269558 -2.27E-01
   150 Broy./Diag. 0.80E-01    1.5     0.00110918     -5417.7250683918  9.06E-03
   151 Broy./Diag. 0.80E-01    1.5     0.00459574     -5417.6821559525  4.29E-02
   152 Broy./Diag. 0.80E-01    1.5     0.00379190     -5417.6456623834  3.65E-02
   153 Broy./Diag. 0.80E-01    1.5     0.00343844     -5417.6270436514  1.86E-02
   154 Broy./Diag. 0.80E-01    1.5     0.00041610     -5417.6662808167 -3.92E-02
   155 Broy./Diag. 0.80E-01    1.5     0.00424864     -5417.6875171288 -2.12E-02
   156 Broy./Diag. 0.80E-01    1.5     0.00137416     -5417.7293770658 -4.19E-02
   157 Broy./Diag. 0.80E-01    1.5     0.00079630     -5417.8860313226 -1.57E-01
   158 Broy./Diag. 0.80E-01    1.5     0.00238139     -5417.8216621412  6.44E-02
   159 Broy./Diag. 0.80E-01    1.5     0.00044057     -5417.9293438989 -1.08E-01
   160 Broy./Diag. 0.80E-01    1.5     0.00082429     -5417.9540264177 -2.47E-02
   161 Broy./Diag. 0.80E-01    1.5     0.00308982     -5417.9945701701 -4.05E-02
   162 Broy./Diag. 0.80E-01    1.5     0.00164539     -5417.6325764836  3.62E-01
   163 Broy./Diag. 0.80E-01    1.5     0.00042535     -5417.7407275337 -1.08E-01
   164 Broy./Diag. 0.80E-01    1.5     0.00182636     -5417.6728363552  6.79E-02
   165 Broy./Diag. 0.80E-01    1.5     0.00998659     -5417.6121251225  6.07E-02
   166 Broy./Diag. 0.80E-01    1.5     0.00192117     -5417.3566180159  2.56E-01
   167 Broy./Diag. 0.80E-01    1.5     0.00348202     -5417.7163965260 -3.60E-01
   168 Broy./Diag. 0.80E-01    1.5     0.00379752     -5417.8443439926 -1.28E-01
   169 Broy./Diag. 0.80E-01    1.5     0.00857044     -5417.7212245836  1.23E-01
   170 Broy./Diag. 0.80E-01    1.5     0.02671287     -5417.8026050740 -8.14E-02
   171 Broy./Diag. 0.80E-01    1.5     0.00464551     -5417.7827645010  1.98E-02
   172 Broy./Diag. 0.80E-01    1.5     0.01660501     -5417.7539227770  2.88E-02
   173 Broy./Diag. 0.80E-01    1.5     0.00192057     -5417.8028525828 -4.89E-02
   174 Broy./Diag. 0.80E-01    1.5     0.00589188     -5417.7590747253  4.38E-02
   175 Broy./Diag. 0.80E-01    1.5     0.01004520     -5417.8262166857 -6.71E-02
   176 Broy./Diag. 0.80E-01    1.5     0.00295607     -5417.8045828164  2.16E-02
   177 Broy./Diag. 0.80E-01    1.5     0.00591135     -5417.6842720888  1.20E-01
   178 Broy./Diag. 0.80E-01    1.5     0.00170805     -5417.7277040217 -4.34E-02
   179 Broy./Diag. 0.80E-01    1.5     0.01019155     -5417.7193048782  8.40E-03
   180 Broy./Diag. 0.80E-01    1.5     0.00604031     -5417.7037553867  1.55E-02
   181 Broy./Diag. 0.80E-01    1.5     0.00127013     -5417.7039076727 -1.52E-04
   182 Broy./Diag. 0.80E-01    1.5     0.00614067     -5417.8157390532 -1.12E-01
   183 Broy./Diag. 0.80E-01    1.5     0.00100307     -5418.0091178085 -1.93E-01
   184 Broy./Diag. 0.80E-01    1.5     0.00371714     -5418.0240901441 -1.50E-02
   185 Broy./Diag. 0.80E-01    1.5     0.00325923     -5417.9340425729  9.00E-02
   186 Broy./Diag. 0.80E-01    1.5     0.01023148     -5418.0175740369 -8.35E-02
   187 Broy./Diag. 0.80E-01    1.5     0.01136817     -5418.0575288677 -4.00E-02
   188 Broy./Diag. 0.80E-01    1.5     0.00521052     -5417.7362581107  3.21E-01
   189 Broy./Diag. 0.80E-01    1.5     0.00106563     -5417.7462296688 -9.97E-03
   190 Broy./Diag. 0.80E-01    1.5     0.00058825     -5417.7521745211 -5.94E-03
   191 Broy./Diag. 0.80E-01    1.5     0.00546922     -5417.7920493553 -3.99E-02
   192 Broy./Diag. 0.80E-01    1.5     0.00139166     -5417.7207610225  7.13E-02
   193 Broy./Diag. 0.80E-01    1.5     0.00900283     -5417.7151521708  5.61E-03
   194 Broy./Diag. 0.80E-01    1.5     0.00457679     -5417.6776250321  3.75E-02
   195 Broy./Diag. 0.80E-01    1.5     0.00541984     -5417.7825681298 -1.05E-01
   196 Broy./Diag. 0.80E-01    1.5     0.00133417     -5417.7734817404  9.09E-03
   197 Broy./Diag. 0.80E-01    1.5     0.00293468     -5417.8220921678 -4.86E-02
   198 Broy./Diag. 0.80E-01    1.5     0.00894570     -5417.7684863565  5.36E-02
   199 Broy./Diag. 0.80E-01    1.5     0.00646574     -5417.8084748376 -4.00E-02
   200 Broy./Diag. 0.80E-01    1.5     0.00845080     -5417.8731267457 -6.47E-02
   201 Broy./Diag. 0.80E-01    1.5     0.00749813     -5417.8741398227 -1.01E-03
   202 Broy./Diag. 0.80E-01    1.5     0.00247559     -5417.9086930898 -3.46E-02
   203 Broy./Diag. 0.80E-01    1.5     0.00265696     -5417.8996592233  9.03E-03
   204 Broy./Diag. 0.80E-01    1.5     0.00405028     -5417.8983716536  1.29E-03
   205 Broy./Diag. 0.80E-01    1.5     0.00272330     -5417.9040811841 -5.71E-03
   206 Broy./Diag. 0.80E-01    1.5     0.00309666     -5417.9099787561 -5.90E-03
   207 Broy./Diag. 0.80E-01    1.5     0.00254911     -5417.9084500287  1.53E-03
   208 Broy./Diag. 0.80E-01    1.5     0.00228659     -5417.9114707789 -3.02E-03
   209 Broy./Diag. 0.80E-01    1.5     0.00274015     -5417.9361637765 -2.47E-02
   210 Broy./Diag. 0.80E-01    1.5     0.00079577     -5417.9389391303 -2.78E-03
   211 Broy./Diag. 0.80E-01    1.5     0.00324919     -5417.9435703024 -4.63E-03
   212 Broy./Diag. 0.80E-01    1.5     0.00054555     -5418.0033338799 -5.98E-02
   213 Broy./Diag. 0.80E-01    1.5     0.00178833     -5418.0203835872 -1.70E-02
   214 Broy./Diag. 0.80E-01    1.5     0.00425315     -5418.0513592231 -3.10E-02
   215 Broy./Diag. 0.80E-01    1.5     0.00455491     -5418.0733209161 -2.20E-02
   216 Broy./Diag. 0.80E-01    1.5     0.00354266     -5418.0525563882  2.08E-02
   217 Broy./Diag. 0.80E-01    1.5     0.00062084     -5417.9268860260  1.26E-01
   218 Broy./Diag. 0.80E-01    1.5     0.00064800     -5417.8790211498  4.79E-02
   219 Broy./Diag. 0.80E-01    1.5     0.00568929     -5417.8946101567 -1.56E-02
   220 Broy./Diag. 0.80E-01    1.5     0.00727295     -5417.9210442550 -2.64E-02
   221 Broy./Diag. 0.80E-01    1.5     0.00654036     -5417.8787791247  4.23E-02
   222 Broy./Diag. 0.80E-01    1.5     0.00574345     -5417.8383503552  4.04E-02
   223 Broy./Diag. 0.80E-01    1.5     0.00173111     -5417.7356549264  1.03E-01
   224 Broy./Diag. 0.80E-01    1.5     0.00845017     -5417.6746744523  6.10E-02
   225 Broy./Diag. 0.80E-01    1.5     0.00786404     -5417.6202691239  5.44E-02
   226 Broy./Diag. 0.80E-01    1.5     0.00344131     -5417.5944335167  2.58E-02
   227 Broy./Diag. 0.80E-01    1.5     0.00593942     -5417.7300643396 -1.36E-01
   228 Broy./Diag. 0.80E-01    1.5     0.00229611     -5417.8322643999 -1.02E-01
   229 Broy./Diag. 0.80E-01    1.5     0.00270291     -5417.8196497973  1.26E-02
   230 Broy./Diag. 0.80E-01    1.5     0.00585446     -5417.7967525018  2.29E-02
   231 Broy./Diag. 0.80E-01    1.5     0.00434413     -5417.8048050082 -8.05E-03
   232 Broy./Diag. 0.80E-01    1.5     0.00567272     -5417.8263477611 -2.15E-02
   233 Broy./Diag. 0.80E-01    1.5     0.00658587     -5417.8082652269  1.81E-02
   234 Broy./Diag. 0.80E-01    1.5     0.01442505     -5417.7821876608  2.61E-02
   235 Broy./Diag. 0.80E-01    1.5     0.00117037     -5417.8439244706 -6.17E-02
   236 Broy./Diag. 0.80E-01    1.5     0.00198407     -5417.8142010789  2.97E-02
   237 Broy./Diag. 0.80E-01    1.5     0.00160452     -5417.7869358278  2.73E-02
   238 Broy./Diag. 0.80E-01    1.5     0.00836815     -5417.7894509706 -2.52E-03
   239 Broy./Diag. 0.80E-01    1.5     0.00871927     -5417.8185757499 -2.91E-02
   240 Broy./Diag. 0.80E-01    1.5     0.00340417     -5417.7640905168  5.45E-02
   241 Broy./Diag. 0.80E-01    1.5     0.00338894     -5417.7564642373  7.63E-03
   242 Broy./Diag. 0.80E-01    1.5     0.00232954     -5417.7736132950 -1.71E-02
   243 Broy./Diag. 0.80E-01    1.5     0.00785791     -5417.8200886169 -4.65E-02
   244 Broy./Diag. 0.80E-01    1.5     0.00388492     -5417.8384396071 -1.84E-02
   245 Broy./Diag. 0.80E-01    1.5     0.00616204     -5417.8213720988  1.71E-02
   246 Broy./Diag. 0.80E-01    1.5     0.00564904     -5417.7947960730  2.66E-02
   247 Broy./Diag. 0.80E-01    1.5     0.00338005     -5417.8602527696 -6.55E-02
   248 Broy./Diag. 0.80E-01    1.5     0.00289723     -5417.8421797542  1.81E-02
   249 Broy./Diag. 0.80E-01    1.5     0.00360433     -5417.8178129402  2.44E-02
   250 Broy./Diag. 0.80E-01    1.5     0.00077028     -5417.8227497504 -4.94E-03
   251 Broy./Diag. 0.80E-01    1.5     0.01171882     -5417.8250508625 -2.30E-03
   252 Broy./Diag. 0.80E-01    1.5     0.00277994     -5417.8215637439  3.49E-03
   253 Broy./Diag. 0.80E-01    1.5     0.00416042     -5417.8093669414  1.22E-02
   254 Broy./Diag. 0.80E-01    1.5     0.00865886     -5417.7751750027  3.42E-02
   255 Broy./Diag. 0.80E-01    1.5     0.00440106     -5417.7768547305 -1.68E-03
   256 Broy./Diag. 0.80E-01    1.5     0.00428657     -5417.7772302942 -3.76E-04
   257 Broy./Diag. 0.80E-01    1.5     0.01026526     -5417.7759434384  1.29E-03
   258 Broy./Diag. 0.80E-01    1.5     0.00387573     -5417.7264489198  4.95E-02
   259 Broy./Diag. 0.80E-01    1.5     0.00774892     -5417.7548378182 -2.84E-02
   260 Broy./Diag. 0.80E-01    1.5     0.00811471     -5417.7414691851  1.34E-02
   261 Broy./Diag. 0.80E-01    1.5     0.00621162     -5417.7842910896 -4.28E-02
   262 Broy./Diag. 0.80E-01    1.5     0.00421961     -5417.8289670027 -4.47E-02
   263 Broy./Diag. 0.80E-01    1.5     0.00132721     -5417.2617485537  5.67E-01
   264 Broy./Diag. 0.80E-01    1.5     0.00851231     -5417.2892948954 -2.75E-02
   265 Broy./Diag. 0.80E-01    1.5     0.00271069     -5417.6123362153 -3.23E-01
   266 Broy./Diag. 0.80E-01    1.5     0.01333522     -5417.5377902160  7.45E-02
   267 Broy./Diag. 0.80E-01    1.5     0.01544774     -5417.3969638532  1.41E-01
   268 Broy./Diag. 0.80E-01    1.5     0.00479914     -5417.6523968226 -2.55E-01
   269 Broy./Diag. 0.80E-01    1.5     0.01198637     -5417.3824757627  2.70E-01
   270 Broy./Diag. 0.80E-01    1.5     0.02156375     -5417.2845872802  9.79E-02
   271 Broy./Diag. 0.80E-01    1.5     0.00096633     -5417.6346230024 -3.50E-01
   272 Broy./Diag. 0.80E-01    1.5     0.03499838     -5417.5637587860  7.09E-02
   273 Broy./Diag. 0.80E-01    1.5     0.00748892     -5417.0217662909  5.42E-01
   274 Broy./Diag. 0.80E-01    1.5     0.00291524     -5416.7880872034  2.34E-01
   275 Broy./Diag. 0.80E-01    1.5     0.00234875     -5416.9193246444 -1.31E-01
   276 Broy./Diag. 0.80E-01    1.5     0.00523358     -5416.9982951042 -7.90E-02
   277 Broy./Diag. 0.80E-01    1.5     0.00453988     -5416.9773038696  2.10E-02
   278 Broy./Diag. 0.80E-01    1.5     0.02217497     -5417.0828319992 -1.06E-01
   279 Broy./Diag. 0.80E-01    1.5     0.00612192     -5417.4903054710 -4.07E-01
   280 Broy./Diag. 0.80E-01    1.5     0.02642416     -5417.7000344781 -2.10E-01
   281 Broy./Diag. 0.80E-01    1.5     0.01986492     -5417.7215348568 -2.15E-02
   282 Broy./Diag. 0.80E-01    1.5     0.00868238     -5417.7346018393 -1.31E-02
   283 Broy./Diag. 0.80E-01    1.5     0.02175179     -5417.4892631983  2.45E-01
   284 Broy./Diag. 0.80E-01    1.5     0.01083004     -5417.8566207179 -3.67E-01
   285 Broy./Diag. 0.80E-01    1.5     0.00411253     -5417.7465706502  1.10E-01
   286 Broy./Diag. 0.80E-01    1.5     0.00848793     -5417.8553778187 -1.09E-01
   287 Broy./Diag. 0.80E-01    1.5     0.00227914     -5417.9688715502 -1.13E-01
   288 Broy./Diag. 0.80E-01    1.5     0.02334573     -5417.8656619862  1.03E-01
   289 Broy./Diag. 0.80E-01    1.5     0.01457581     -5417.4161069482  4.50E-01
   290 Broy./Diag. 0.80E-01    1.5     0.01207754     -5417.2423146803  1.74E-01
   291 Broy./Diag. 0.80E-01    1.5     0.00759006     -5417.5724078731 -3.30E-01
   292 Broy./Diag. 0.80E-01    1.5     0.00559684     -5417.1593045220  4.13E-01
   293 Broy./Diag. 0.80E-01    1.5     0.00752042     -5417.7299104279 -5.71E-01
   294 Broy./Diag. 0.80E-01    1.5     0.01734053     -5417.6553196472  7.46E-02
   295 Broy./Diag. 0.80E-01    1.5     0.00931220     -5417.6454296137  9.89E-03
   296 Broy./Diag. 0.80E-01    1.5     0.00391746     -5417.6113498403  3.41E-02
   297 Broy./Diag. 0.80E-01    1.5     0.00423596     -5417.6575911732 -4.62E-02
   298 Broy./Diag. 0.80E-01    1.5     0.00972301     -5417.7691492273 -1.12E-01
   299 Broy./Diag. 0.80E-01    1.5     0.00436628     -5417.7822319231 -1.31E-02
   300 Broy./Diag. 0.80E-01    1.5     0.01195244     -5417.9001926392 -1.18E-01
   301 Broy./Diag. 0.80E-01    1.5     0.00606789     -5417.9147397337 -1.45E-02
   302 Broy./Diag. 0.80E-01    1.5     0.00779565     -5417.7545247371  1.60E-01
   303 Broy./Diag. 0.80E-01    1.5     0.01547595     -5417.7020427661  5.25E-02
   304 Broy./Diag. 0.80E-01    1.5     0.02127894     -5417.7459079965 -4.39E-02
   305 Broy./Diag. 0.80E-01    1.5     0.02547252     -5417.7164937401  2.94E-02
   306 Broy./Diag. 0.80E-01    1.5     0.00098813     -5417.7327619348 -1.63E-02
   307 Broy./Diag. 0.80E-01    1.5     0.00804509     -5417.7020567576  3.07E-02
   308 Broy./Diag. 0.80E-01    1.5     0.00321944     -5417.7111845782 -9.13E-03
   309 Broy./Diag. 0.80E-01    1.5     0.01103009     -5417.7912539757 -8.01E-02
   310 Broy./Diag. 0.80E-01    1.5     0.01425411     -5417.7309587470  6.03E-02
   311 Broy./Diag. 0.80E-01    1.5     0.00639531     -5417.4620273776  2.69E-01
   312 Broy./Diag. 0.80E-01    1.5     0.00637618     -5417.6966891150 -2.35E-01
   313 Broy./Diag. 0.80E-01    1.5     0.01337765     -5417.7049790785 -8.29E-03
   314 Broy./Diag. 0.80E-01    1.5     0.00367968     -5417.6626535120  4.23E-02
   315 Broy./Diag. 0.80E-01    1.5     0.00776556     -5417.8257659211 -1.63E-01
   316 Broy./Diag. 0.80E-01    1.5     0.01781584     -5417.7112275823  1.15E-01
   317 Broy./Diag. 0.80E-01    1.5     0.00654819     -5417.8177939035 -1.07E-01
   318 Broy./Diag. 0.80E-01    1.5     0.01731739     -5417.7716135992  4.62E-02
   319 Broy./Diag. 0.80E-01    1.5     0.00678891     -5417.7655720640  6.04E-03
   320 Broy./Diag. 0.80E-01    1.5     0.00914377     -5417.8130735360 -4.75E-02
   321 Broy./Diag. 0.80E-01    1.5     0.00703491     -5417.7213060396  9.18E-02
   322 Broy./Diag. 0.80E-01    1.5     0.00297953     -5417.7111018178  1.02E-02
   323 Broy./Diag. 0.80E-01    1.5     0.00529375     -5417.6711197546  4.00E-02
   324 Broy./Diag. 0.80E-01    1.5     0.00306139     -5417.5752994691  9.58E-02
   325 Broy./Diag. 0.80E-01    1.5     0.00567419     -5417.4722225713  1.03E-01
   326 Broy./Diag. 0.80E-01    1.5     0.00570833     -5417.4217806926  5.04E-02
   327 Broy./Diag. 0.80E-01    1.5     0.00944960     -5417.3702381255  5.15E-02
   328 Broy./Diag. 0.80E-01    1.5     0.02699521     -5417.3896666583 -1.94E-02
   329 Broy./Diag. 0.80E-01    1.5     0.00416704     -5417.4519789181 -6.23E-02
   330 Broy./Diag. 0.80E-01    1.5     0.00354624     -5417.4647567138 -1.28E-02
   331 Broy./Diag. 0.80E-01    1.5     0.00868479     -5417.6060193853 -1.41E-01
   332 Broy./Diag. 0.80E-01    1.5     0.00911931     -5417.6853892548 -7.94E-02
   333 Broy./Diag. 0.80E-01    1.5     0.00425095     -5417.7456659417 -6.03E-02
   334 Broy./Diag. 0.80E-01    1.5     0.00701746     -5417.7410149065  4.65E-03
   335 Broy./Diag. 0.80E-01    1.5     0.00387500     -5417.8359779862 -9.50E-02
   336 Broy./Diag. 0.80E-01    1.5     0.00660732     -5417.8904146863 -5.44E-02
   337 Broy./Diag. 0.80E-01    1.5     0.00494566     -5418.0381940304 -1.48E-01
   338 Broy./Diag. 0.80E-01    1.5     0.00501131     -5418.2160568334 -1.78E-01
   339 Broy./Diag. 0.80E-01    1.5     0.00203886     -5418.0713259067  1.45E-01
   340 Broy./Diag. 0.80E-01    1.5     0.01321654     -5418.0035543026  6.78E-02
   341 Broy./Diag. 0.80E-01    1.5     0.00123107     -5417.7801961326  2.23E-01
   342 Broy./Diag. 0.80E-01    1.5     0.01083182     -5417.6518543636  1.28E-01
   343 Broy./Diag. 0.80E-01    1.5     0.00132461     -5417.3761434473  2.76E-01
   344 Broy./Diag. 0.80E-01    1.5     0.00726719     -5417.2769094558  9.92E-02
   345 Broy./Diag. 0.80E-01    1.5     0.00247205     -5417.2141389555  6.28E-02
   346 Broy./Diag. 0.80E-01    1.5     0.01331351     -5417.2020750540  1.21E-02
   347 Broy./Diag. 0.80E-01    1.5     0.02765477     -5417.3383997165 -1.36E-01
   348 Broy./Diag. 0.80E-01    1.5     0.00430446     -5417.5384016039 -2.00E-01
   349 Broy./Diag. 0.80E-01    1.5     0.00501947     -5417.6066876028 -6.83E-02
   350 Broy./Diag. 0.80E-01    1.5     0.00289942     -5417.6026540039  4.03E-03
   351 Broy./Diag. 0.80E-01    1.5     0.00283570     -5417.6638594512 -6.12E-02
   352 Broy./Diag. 0.80E-01    1.5     0.00460171     -5417.6587975742  5.06E-03
   353 Broy./Diag. 0.80E-01    1.5     0.00118516     -5417.6717778471 -1.30E-02
   354 Broy./Diag. 0.80E-01    1.5     0.00282541     -5417.7241426233 -5.24E-02
   355 Broy./Diag. 0.80E-01    1.5     0.00510872     -5417.7819615970 -5.78E-02
   356 Broy./Diag. 0.80E-01    1.5     0.00509385     -5417.8017987435 -1.98E-02
   357 Broy./Diag. 0.80E-01    1.5     0.00335052     -5417.8208357643 -1.90E-02
   358 Broy./Diag. 0.80E-01    1.5     0.00477042     -5417.8086597315  1.22E-02
   359 Broy./Diag. 0.80E-01    1.5     0.00154065     -5417.8189972433 -1.03E-02
   360 Broy./Diag. 0.80E-01    1.5     0.00857449     -5417.8393790572 -2.04E-02
   361 Broy./Diag. 0.80E-01    1.5     0.02682110     -5417.7605977740  7.88E-02
   362 Broy./Diag. 0.80E-01    1.5     0.01470897     -5417.8440762692 -8.35E-02
   363 Broy./Diag. 0.80E-01    1.5     0.01127666     -5417.8771948954 -3.31E-02
   364 Broy./Diag. 0.80E-01    1.5     0.00378580     -5417.7621421560  1.15E-01
   365 Broy./Diag. 0.80E-01    1.5     0.01987677     -5417.7535721551  8.57E-03
   366 Broy./Diag. 0.80E-01    1.5     0.01306438     -5417.7411401363  1.24E-02
   367 Broy./Diag. 0.80E-01    1.5     0.00867817     -5417.7461583384 -5.02E-03
   368 Broy./Diag. 0.80E-01    1.5     0.00714592     -5417.7393030301  6.86E-03
   369 Broy./Diag. 0.80E-01    1.5     0.02222398     -5417.7093114196  3.00E-02
   370 Broy./Diag. 0.80E-01    1.5     0.00970224     -5417.5672364130  1.42E-01
   371 Broy./Diag. 0.80E-01    1.5     0.01351300     -5417.7352041360 -1.68E-01
   372 Broy./Diag. 0.80E-01    1.5     0.06975467     -5417.5028660437  2.32E-01
   373 Broy./Diag. 0.80E-01    1.5     0.03683451     -5417.9582656726 -4.55E-01
   374 Broy./Diag. 0.80E-01    1.5     0.03370881     -5418.0218744558 -6.36E-02
   375 Broy./Diag. 0.80E-01    1.5     0.03258528     -5417.6582704745  3.64E-01
   376 Broy./Diag. 0.80E-01    1.5     0.00763910     -5416.9677202436  6.91E-01
   377 Broy./Diag. 0.80E-01    1.5     0.01167558     -5416.8402732811  1.27E-01
   378 Broy./Diag. 0.80E-01    1.5     0.00202122     -5416.5474555085  2.93E-01
