 DBCSR| CPU Multiplication driver                                           XSMM (U)
 DBCSR| Multrec recursion limit                                              512 (U)
 DBCSR| Multiplication stack size                                           1000 (D)
 DBCSR| Maximum elements for images                                    UNLIMITED (U)
 DBCSR| Multiplicative factor virtual images                                   1 (U)
 DBCSR| Use multiplication densification                                       T (D)
 DBCSR| Multiplication size stacks                                             3 (U)
 DBCSR| Use memory pool for CPU allocation                                     F (U)
 DBCSR| Number of 3D layers                                               SINGLE (U)
 DBCSR| Use MPI memory allocation                                              F (U)
 DBCSR| Use RMA algorithm                                                      F (U)
 DBCSR| Use Communication thread                                               T (U)
 DBCSR| Communication thread load                                             87 (D)
 DBCSR| MPI: My process id                                                     0
 DBCSR| MPI: Number of processes                                             128
 DBCSR| OMP: Current number of threads                                         1
 DBCSR| OMP: Max number of threads                                             1
 DBCSR| Split modifier for TAS multiplication algorithm                  1.0E+00 (U)


  **** **** ******  **  PROGRAM STARTED AT               2023-02-14 14:13:47.348
 ***** ** ***  *** **   PROGRAM STARTED ON                             nid001185
 **    ****   ******    PROGRAM STARTED BY                                cahart
 ***** **    ** ** **   PROGRAM PROCESS ID                                170002
  **** **  *******  **  PROGRAM STARTED IN /mnt/lustre/a2fs-work2/work/e05/e05/c
                                           ahart/postdoc/masters/ni/archer2/slab
                                           /optimise/alpha-beta/scf_5e-4_mos-100
                                           0_temp-2000_spin-0.7-0.5_periodic-xyz
                                           /search/1.0E-3_1.0E-2

 CP2K| version string:                 CP2K version 2023.1 (Development Version)
 CP2K| source code revision number:                                  git:964cd58
 CP2K| cp2kflags: omp libint fftw3 libxc elpa parallel scalapack xsmm plumed2 mk
 CP2K|            l
 CP2K| is freely available from                            https://www.cp2k.org/
 CP2K| Program compiled at                          Mon 13 Feb 17:05:14 GMT 2023
 CP2K| Program compiled on                                                  ln01
 CP2K| Program compiled for                                              ARCHER2
 CP2K| Data directory path    /work/e05/e05/cahart/cp2k/cp2k-2023.1/cp2k-2023.1-
 CP2K| Input file name                                                  cp2k.inp

 GLOBAL| Force Environment number                                              1
 GLOBAL| Basis set file name                                        BASIS_MOLOPT
 GLOBAL| Potential file name                                      GTH_POTENTIALS
 GLOBAL| MM Potential file name                                     MM_POTENTIAL
 GLOBAL| Coordinate file name                                      __STD_INPUT__
 GLOBAL| Method name                                                        CP2K
 GLOBAL| Project name                                                    Ni_bulk
 GLOBAL| Run type                                                         ENERGY
 GLOBAL| FFT library                                                       FFTW3
 GLOBAL| Diagonalization library                                            ELPA
 GLOBAL| DGEMM library                                                      BLAS
 GLOBAL| Minimum number of eigenvectors for ELPA usage                        16
 GLOBAL| Orthonormality check for eigenvectors                          DISABLED
 GLOBAL| Matrix multiplication library                                 ScaLAPACK
 GLOBAL| All-to-all communication in single precision                          F
 GLOBAL| FFTs using library dependent lengths                                  F
 GLOBAL| Grid backend                                                       AUTO
 GLOBAL| Global print level                                               MEDIUM
 GLOBAL| MPI I/O enabled                                                       T
 GLOBAL| Total number of message passing processes                           128
 GLOBAL| Number of threads for this process                                    1
 GLOBAL| This output is from process                                           0
 GLOBAL| Stack size for threads created by OpenMP (OMP_STACKSIZE)        default
 GLOBAL| CPU model name                          AMD EPYC 7742 64-Core Processor
 GLOBAL| CPUID                                                              1002

 MEMORY| system memory details [Kb]
 MEMORY|                        rank 0           min           max       average
 MEMORY| MemTotal            263528084     263528084     263528084     263528084
 MEMORY| MemFree             238126592     238126592     238126592     238126592
 MEMORY| Buffers                 32328         32328         32328         32328
 MEMORY| Cached                1055348       1055348       1055348       1055348
 MEMORY| Slab                  1695044       1695044       1695044       1695044
 MEMORY| SReclaimable           134472        134472        134472        134472
 MEMORY| MemLikelyFree       239348740     239348740     239348740     239348740


 *** Fundamental physical constants (SI units) ***

 *** Literature: B. J. Mohr and B. N. Taylor,
 ***             CODATA recommended values of the fundamental physical
 ***             constants: 2006, Web Version 5.1
 ***             http://physics.nist.gov/constants

 Speed of light in vacuum [m/s]                             2.99792458000000E+08
 Magnetic constant or permeability of vacuum [N/A**2]       1.25663706143592E-06
 Electric constant or permittivity of vacuum [F/m]          8.85418781762039E-12
 Planck constant (h) [J*s]                                  6.62606896000000E-34
 Planck constant (h-bar) [J*s]                              1.05457162825177E-34
 Elementary charge [C]                                      1.60217648700000E-19
 Electron mass [kg]                                         9.10938215000000E-31
 Electron g factor [ ]                                     -2.00231930436220E+00
 Proton mass [kg]                                           1.67262163700000E-27
 Fine-structure constant                                    7.29735253760000E-03
 Rydberg constant [1/m]                                     1.09737315685270E+07
 Avogadro constant [1/mol]                                  6.02214179000000E+23
 Boltzmann constant [J/K]                                   1.38065040000000E-23
 Atomic mass unit [kg]                                      1.66053878200000E-27
 Bohr radius [m]                                            5.29177208590000E-11

 *** Conversion factors ***

 [u] -> [a.u.]                                              1.82288848426455E+03
 [Angstrom] -> [Bohr] = [a.u.]                              1.88972613288564E+00
 [a.u.] = [Bohr] -> [Angstrom]                              5.29177208590000E-01
 [a.u.] -> [s]                                              2.41888432650478E-17
 [a.u.] -> [fs]                                             2.41888432650478E-02
 [a.u.] -> [J]                                              4.35974393937059E-18
 [a.u.] -> [N]                                              8.23872205491840E-08
 [a.u.] -> [K]                                              3.15774647902944E+05
 [a.u.] -> [kJ/mol]                                         2.62549961709828E+03
 [a.u.] -> [kcal/mol]                                       6.27509468713739E+02
 [a.u.] -> [Pa]                                             2.94210107994716E+13
 [a.u.] -> [bar]                                            2.94210107994716E+08
 [a.u.] -> [atm]                                            2.90362800883016E+08
 [a.u.] -> [eV]                                             2.72113838565563E+01
 [a.u.] -> [Hz]                                             6.57968392072181E+15
 [a.u.] -> [1/cm] (wave numbers)                            2.19474631370540E+05
 [a.u./Bohr**2] -> [1/cm]                                   5.14048714338585E+03
 

 CELL_TOP| Volume [angstrom^3]:                                       983.249569
 CELL_TOP| Vector a [angstrom     7.012     0.000     0.000   |a| =     7.011596
 CELL_TOP| Vector b [angstrom     0.000     7.012     0.000   |b| =     7.011596
 CELL_TOP| Vector c [angstrom     0.000     0.000    20.000   |c| =    20.000000
 CELL_TOP| Angle (b,c), alpha [degree]:                                90.000000
 CELL_TOP| Angle (a,c), beta  [degree]:                                90.000000
 CELL_TOP| Angle (a,b), gamma [degree]:                                90.000000
 CELL_TOP| Numerically orthorhombic:                                         YES
 CELL_TOP| Periodicity                                                       XYZ

 GENERATE|  Preliminary Number of Bonds generated:                             0
 GENERATE|  Achieved consistency in connectivity generation.

 CELL| Volume [angstrom^3]:                                           983.249569
 CELL| Vector a [angstrom]:       7.012     0.000     0.000   |a| =     7.011596
 CELL| Vector b [angstrom]:       0.000     7.012     0.000   |b| =     7.011596
 CELL| Vector c [angstrom]:       0.000     0.000    20.000   |c| =    20.000000
 CELL| Angle (b,c), alpha [degree]:                                    90.000000
 CELL| Angle (a,c), beta  [degree]:                                    90.000000
 CELL| Angle (a,b), gamma [degree]:                                    90.000000
 CELL| Numerically orthorhombic:                                             YES
 CELL| Periodicity                                                           XYZ

 CELL_REF| Volume [angstrom^3]:                                       983.249569
 CELL_REF| Vector a [angstrom     7.012     0.000     0.000   |a| =     7.011596
 CELL_REF| Vector b [angstrom     0.000     7.012     0.000   |b| =     7.011596
 CELL_REF| Vector c [angstrom     0.000     0.000    20.000   |c| =    20.000000
 CELL_REF| Angle (b,c), alpha [degree]:                                90.000000
 CELL_REF| Angle (a,c), beta  [degree]:                                90.000000
 CELL_REF| Angle (a,b), gamma [degree]:                                90.000000
 CELL_REF| Numerically orthorhombic:                                         YES
 CELL_REF| Periodicity                                                       XYZ

 *** WARNING in cryssym.F:165 :: Symmetry library SPGLIB not available ***


 *******************************************************************************
                                    Kpoints
 *******************************************************************************
 BRILLOUIN| K-point scheme                                        Monkhorst-Pack
 BRILLOUIN| K-Point grid                                             4    4    1
 BRILLOUIN| Accuracy in Symmetry determination                      0.100000E-05
 BRILLOUIN| K-Point point group symmetrization                               OFF
 BRILLOUIN| Wavefunction type                                            COMPLEX
 BRILLOUIN| List of Kpoints [2 Pi/Bohr]                                        8
 BRILLOUIN| Number           Weight            X              Y              Z
 BRILLOUIN|     1           0.12500       -0.37500       -0.37500        0.00000
 BRILLOUIN|     2           0.12500       -0.37500       -0.12500        0.00000
 BRILLOUIN|     3           0.12500       -0.37500        0.12500        0.00000
 BRILLOUIN|     4           0.12500       -0.37500        0.37500        0.00000
 BRILLOUIN|     5           0.12500       -0.12500       -0.37500        0.00000
 BRILLOUIN|     6           0.12500       -0.12500       -0.12500        0.00000
 BRILLOUIN|     7           0.12500       -0.12500        0.12500        0.00000
 BRILLOUIN|     8           0.12500       -0.12500        0.37500        0.00000
 *******************************************************************************

 *******************************************************************************
 *******************************************************************************
 **                                                                           **
 **     #####                         ##              ##                      **
 **    ##   ##            ##          ##              ##                      **
 **   ##     ##                       ##            ######                    **
 **   ##     ##  ##   ##  ##   #####  ##  ##   ####   ##    #####    #####    **
 **   ##     ##  ##   ##  ##  ##      ## ##   ##      ##   ##   ##  ##   ##   **
 **   ##  ## ##  ##   ##  ##  ##      ####     ###    ##   ######   ######    **
 **    ##  ###   ##   ##  ##  ##      ## ##      ##   ##   ##       ##        **
 **     #######   #####   ##   #####  ##  ##  ####    ##    #####   ##        **
 **           ##                                                    ##        **
 **                                                                           **
 **                                                ... make the atoms dance   **
 **                                                                           **
 **            Copyright (C) by CP2K developers group (2000-2023)             **
 **                      J. Chem. Phys. 152, 194103 (2020)                    **
 **                                                                           **
 *******************************************************************************

 *** WARNING in qs_environment.F:1456 :: Number of electrons will be ***
 *** overwritten by NELEC_ALPHA and NELEC_BETA, multiplicity will be ***
 *** ignored.                                                        ***

 Number of electrons should be                                               576
 Sum of NELEC_ALPHA and NELEC_BETA is                                    576.000

 *** WARNING in qs_environment.F:1488 :: NELEC_ALPHA is not an integer, ***
 *** many features will not be supported.                               ***


 *** WARNING in qs_environment.F:1500 :: NELEC_BETA is not an integer, ***
 *** many features will not be supported.                              ***


 *** WARNING in qs_environment.F:1532 :: More ADDED_MOs requested for beta ***
 *** spin than available.                                                  ***


 *** WARNING in qs_environment.F:1548 :: More added MOs requested than     ***
 *** available. The full set of unoccupied MOs will be used. Use           ***
 *** 'ADDED_MOS -1' to always use all available MOs and to get rid of this ***
 *** warning.                                                              ***


 DFT| Spin unrestricted (spin-polarized) Kohn-Sham calculation               UKS
 DFT| Multiplicity                                                             1
 DFT| Number of spin states                                                    2
 DFT| Charge                                                                   0
 DFT| Self-interaction correction (SIC)                                       NO
 DFT| Cutoffs: density                                              1.000000E-10
 DFT|          gradient                                             1.000000E-10
 DFT|          tau                                                  1.000000E-10
 DFT|          cutoff_smoothing_range                               0.000000E+00
 DFT| XC density smoothing                                                  NONE
 DFT| XC derivatives                                                          PW

 FUNCTIONAL| PBE:
 FUNCTIONAL| J.P.Perdew, K.Burke, M.Ernzerhof, Phys. Rev. Letter, vol. 77, n 18,
 FUNCTIONAL|  pp. 3865-3868, (1996){spin polarized}                             

 vdW POTENTIAL|                                                   Pair Potential
 vdW POTENTIAL|          DFT-D3 (Version 3.1)
 vdW POTENTIAL|          Potential Form: S. Grimme et al, JCP 132: 154104 (2010)
 vdW POTENTIAL|          Zero Damping
 vdW POTENTIAL|          Cutoff Radius [Bohr]:                             20.00
 vdW POTENTIAL|          s6 Scaling Factor:                               1.0000
 vdW POTENTIAL|          sr6 Scaling Factor:                              1.2170
 vdW POTENTIAL|          s8 Scaling Factor:                               0.7220
 vdW POTENTIAL|          Cutoff for CN calculation:                   0.1000E-05

 QS| Method:                                                                 GPW
 QS| Density plane wave grid type                        NON-SPHERICAL FULLSPACE
 QS| Number of grid levels:                                                    5
 QS| Density cutoff [a.u.]:                                                300.0
 QS| Multi grid cutoff [a.u.]: 1) grid level                               300.0
 QS|                           2) grid level                               100.0
 QS|                           3) grid level                                33.3
 QS|                           4) grid level                                11.1
 QS|                           5) grid level                                 3.7
 QS| Grid level progression factor:                                          3.0
 QS| Relative density cutoff [a.u.]:                                        30.0
 QS| Interaction thresholds: eps_pgf_orb:                                1.0E-06
 QS|                         eps_filter_matrix:                          0.0E+00
 QS|                         eps_core_charge:                            1.0E-14
 QS|                         eps_rho_gspace:                             1.0E-12
 QS|                         eps_rho_rspace:                             1.0E-12
 QS|                         eps_gvg_rspace:                             1.0E-06
 QS|                         eps_ppl:                                    1.0E-02
 QS|                         eps_ppnl:                                   1.0E-08


 ATOMIC KIND INFORMATION

  1. Atomic kind: Ni_i                                  Number of atoms:      16

     Orbital Basis Set                                        DZVP-MOLOPT-SR-GTH

       Number of orbital shell sets:                                           1
       Number of orbital shells:                                               8
       Number of primitive Cartesian functions:                                6
       Number of Cartesian basis functions:                                   31
       Number of spherical basis functions:                                   26
       Norm type:                                                              2

       Normalised Cartesian orbitals:

                        Set   Shell   Orbital            Exponent    Coefficient

                          1       1    2s               10.077428      -0.684558
                                                         5.847736      -0.844524
                                                         2.494033       1.088856
                                                         0.988355       0.395503
                                                         0.344978       0.010224
                                                         0.099466      -0.003250

                          1       2    3s               10.077428       0.096747
                                                         5.847736       0.162504
                                                         2.494033      -0.297192
                                                         0.988355      -0.319752
                                                         0.344978       0.088318
                                                         0.099466       0.118587

                          1       3    4s               10.077428       0.036437
                                                         5.847736      -0.381480
                                                         2.494033       0.003759
                                                         0.988355      -1.048256
                                                         0.344978       0.855825
                                                         0.099466      -0.176350

                          1       4    3px              10.077428      -3.133913
                                                         5.847736       3.027656
                                                         2.494033       2.353227
                                                         0.988355       0.554184
                                                         0.344978       0.019462
                                                         0.099466      -0.000291
                          1       4    3py              10.077428      -3.133913
                                                         5.847736       3.027656
                                                         2.494033       2.353227
                                                         0.988355       0.554184
                                                         0.344978       0.019462
                                                         0.099466      -0.000291
                          1       4    3pz              10.077428      -3.133913
                                                         5.847736       3.027656
                                                         2.494033       2.353227
                                                         0.988355       0.554184
                                                         0.344978       0.019462
                                                         0.099466      -0.000291

                          1       5    4px              10.077428      -0.112729
                                                         5.847736      -0.114008
                                                         2.494033      -0.347303
                                                         0.988355      -0.110323
                                                         0.344978       0.154096
                                                         0.099466       0.058386
                          1       5    4py              10.077428      -0.112729
                                                         5.847736      -0.114008
                                                         2.494033      -0.347303
                                                         0.988355      -0.110323
                                                         0.344978       0.154096
                                                         0.099466       0.058386
                          1       5    4pz              10.077428      -0.112729
                                                         5.847736      -0.114008
                                                         2.494033      -0.347303
                                                         0.988355      -0.110323
                                                         0.344978       0.154096
                                                         0.099466       0.058386

                          1       6    4dx2             10.077428       8.232726
                                                         5.847736       9.105758
                                                         2.494033       2.849835
                                                         0.988355       0.554319
                                                         0.344978       0.067245
                                                         0.099466       0.001940
                          1       6    4dxy             10.077428      14.259500
                                                         5.847736      15.771636
                                                         2.494033       4.936060
                                                         0.988355       0.960109
                                                         0.344978       0.116472
                                                         0.099466       0.003360
                          1       6    4dxz             10.077428      14.259500
                                                         5.847736      15.771636
                                                         2.494033       4.936060
                                                         0.988355       0.960109
                                                         0.344978       0.116472
                                                         0.099466       0.003360
                          1       6    4dy2             10.077428       8.232726
                                                         5.847736       9.105758
                                                         2.494033       2.849835
                                                         0.988355       0.554319
                                                         0.344978       0.067245
                                                         0.099466       0.001940
                          1       6    4dyz             10.077428      14.259500
                                                         5.847736      15.771636
                                                         2.494033       4.936060
                                                         0.988355       0.960109
                                                         0.344978       0.116472
                                                         0.099466       0.003360
                          1       6    4dz2             10.077428       8.232726
                                                         5.847736       9.105758
                                                         2.494033       2.849835
                                                         0.988355       0.554319
                                                         0.344978       0.067245
                                                         0.099466       0.001940

                          1       7    5dx2             10.077428      -2.715373
                                                         5.847736      -4.020640
                                                         2.494033      -1.397569
                                                         0.988355      -0.076143
                                                         0.344978       0.033435
                                                         0.099466       0.026032
                          1       7    5dxy             10.077428      -4.703164
                                                         5.847736      -6.963952
                                                         2.494033      -2.420661
                                                         0.988355      -0.131883
                                                         0.344978       0.057911
                                                         0.099466       0.045088
                          1       7    5dxz             10.077428      -4.703164
                                                         5.847736      -6.963952
                                                         2.494033      -2.420661
                                                         0.988355      -0.131883
                                                         0.344978       0.057911
                                                         0.099466       0.045088
                          1       7    5dy2             10.077428      -2.715373
                                                         5.847736      -4.020640
                                                         2.494033      -1.397569
                                                         0.988355      -0.076143
                                                         0.344978       0.033435
                                                         0.099466       0.026032
                          1       7    5dyz             10.077428      -4.703164
                                                         5.847736      -6.963952
                                                         2.494033      -2.420661
                                                         0.988355      -0.131883
                                                         0.344978       0.057911
                                                         0.099466       0.045088
                          1       7    5dz2             10.077428      -2.715373
                                                         5.847736      -4.020640
                                                         2.494033      -1.397569
                                                         0.988355      -0.076143
                                                         0.344978       0.033435
                                                         0.099466       0.026032

                          1       8    5fx3             10.077428      -0.467694
                                                         5.847736       0.618100
                                                         2.494033       0.066069
                                                         0.988355       0.262898
                                                         0.344978       0.004720
                                                         0.099466       0.007748
                          1       8    5fx2y            10.077428      -1.045795
                                                         5.847736       1.382114
                                                         2.494033       0.147734
                                                         0.988355       0.587859
                                                         0.344978       0.010555
                                                         0.099466       0.017325
                          1       8    5fx2z            10.077428      -1.045795
                                                         5.847736       1.382114
                                                         2.494033       0.147734
                                                         0.988355       0.587859
                                                         0.344978       0.010555
                                                         0.099466       0.017325
                          1       8    5fxy2            10.077428      -1.045795
                                                         5.847736       1.382114
                                                         2.494033       0.147734
                                                         0.988355       0.587859
                                                         0.344978       0.010555
                                                         0.099466       0.017325
                          1       8    5fxyz            10.077428      -1.811371
                                                         5.847736       2.393892
                                                         2.494033       0.255883
                                                         0.988355       1.018201
                                                         0.344978       0.018282
                                                         0.099466       0.030008
                          1       8    5fxz2            10.077428      -1.045795
                                                         5.847736       1.382114
                                                         2.494033       0.147734
                                                         0.988355       0.587859
                                                         0.344978       0.010555
                                                         0.099466       0.017325
                          1       8    5fy3             10.077428      -0.467694
                                                         5.847736       0.618100
                                                         2.494033       0.066069
                                                         0.988355       0.262898
                                                         0.344978       0.004720
                                                         0.099466       0.007748
                          1       8    5fy2z            10.077428      -1.045795
                                                         5.847736       1.382114
                                                         2.494033       0.147734
                                                         0.988355       0.587859
                                                         0.344978       0.010555
                                                         0.099466       0.017325
                          1       8    5fyz2            10.077428      -1.045795
                                                         5.847736       1.382114
                                                         2.494033       0.147734
                                                         0.988355       0.587859
                                                         0.344978       0.010555
                                                         0.099466       0.017325
                          1       8    5fz3             10.077428      -0.467694
                                                         5.847736       0.618100
                                                         2.494033       0.066069
                                                         0.988355       0.262898
                                                         0.344978       0.004720
                                                         0.099466       0.007748

       Atomic covalent radius [Angstrom]:                                  1.150

       Atomic van der Waals radius [Angstrom]:                             1.630

     GTH Potential information for                                   GTH-PBE-q18

       Description:                       Goedecker-Teter-Hutter pseudopotential
                                           Goedecker et al., PRB 54, 1703 (1996)
                                          Hartwigsen et al., PRB 58, 3641 (1998)
                                                      Krack, TCA 114, 145 (2005)

       Gaussian exponent of the core charge distribution:               4.081633
       Electronic configuration (s p d ...):                           4   6   8

       Parameters of the local part of the GTH pseudopotential:

                          rloc        C1          C2          C3          C4
                        0.350000    2.102166    0.648484

       Parameters of the non-local part of the GTH pseudopotential:

                   l      r(l)      h(i,j,l)

                   0    0.261295    0.622658    9.970227
                                    9.970227  -12.871507
                   1    0.224253  -11.142708   12.429566
                                   12.429566  -14.706861
                   2    0.215348  -12.628146

  2. Atomic kind: Ni_b                                  Number of atoms:      16

     Orbital Basis Set                                        DZVP-MOLOPT-SR-GTH

       Number of orbital shell sets:                                           1
       Number of orbital shells:                                               8
       Number of primitive Cartesian functions:                                6
       Number of Cartesian basis functions:                                   31
       Number of spherical basis functions:                                   26
       Norm type:                                                              2

       Normalised Cartesian orbitals:

                        Set   Shell   Orbital            Exponent    Coefficient

                          1       1    2s               10.077428      -0.684558
                                                         5.847736      -0.844524
                                                         2.494033       1.088856
                                                         0.988355       0.395503
                                                         0.344978       0.010224
                                                         0.099466      -0.003250

                          1       2    3s               10.077428       0.096747
                                                         5.847736       0.162504
                                                         2.494033      -0.297192
                                                         0.988355      -0.319752
                                                         0.344978       0.088318
                                                         0.099466       0.118587

                          1       3    4s               10.077428       0.036437
                                                         5.847736      -0.381480
                                                         2.494033       0.003759
                                                         0.988355      -1.048256
                                                         0.344978       0.855825
                                                         0.099466      -0.176350

                          1       4    3px              10.077428      -3.133913
                                                         5.847736       3.027656
                                                         2.494033       2.353227
                                                         0.988355       0.554184
                                                         0.344978       0.019462
                                                         0.099466      -0.000291
                          1       4    3py              10.077428      -3.133913
                                                         5.847736       3.027656
                                                         2.494033       2.353227
                                                         0.988355       0.554184
                                                         0.344978       0.019462
                                                         0.099466      -0.000291
                          1       4    3pz              10.077428      -3.133913
                                                         5.847736       3.027656
                                                         2.494033       2.353227
                                                         0.988355       0.554184
                                                         0.344978       0.019462
                                                         0.099466      -0.000291

                          1       5    4px              10.077428      -0.112729
                                                         5.847736      -0.114008
                                                         2.494033      -0.347303
                                                         0.988355      -0.110323
                                                         0.344978       0.154096
                                                         0.099466       0.058386
                          1       5    4py              10.077428      -0.112729
                                                         5.847736      -0.114008
                                                         2.494033      -0.347303
                                                         0.988355      -0.110323
                                                         0.344978       0.154096
                                                         0.099466       0.058386
                          1       5    4pz              10.077428      -0.112729
                                                         5.847736      -0.114008
                                                         2.494033      -0.347303
                                                         0.988355      -0.110323
                                                         0.344978       0.154096
                                                         0.099466       0.058386

                          1       6    4dx2             10.077428       8.232726
                                                         5.847736       9.105758
                                                         2.494033       2.849835
                                                         0.988355       0.554319
                                                         0.344978       0.067245
                                                         0.099466       0.001940
                          1       6    4dxy             10.077428      14.259500
                                                         5.847736      15.771636
                                                         2.494033       4.936060
                                                         0.988355       0.960109
                                                         0.344978       0.116472
                                                         0.099466       0.003360
                          1       6    4dxz             10.077428      14.259500
                                                         5.847736      15.771636
                                                         2.494033       4.936060
                                                         0.988355       0.960109
                                                         0.344978       0.116472
                                                         0.099466       0.003360
                          1       6    4dy2             10.077428       8.232726
                                                         5.847736       9.105758
                                                         2.494033       2.849835
                                                         0.988355       0.554319
                                                         0.344978       0.067245
                                                         0.099466       0.001940
                          1       6    4dyz             10.077428      14.259500
                                                         5.847736      15.771636
                                                         2.494033       4.936060
                                                         0.988355       0.960109
                                                         0.344978       0.116472
                                                         0.099466       0.003360
                          1       6    4dz2             10.077428       8.232726
                                                         5.847736       9.105758
                                                         2.494033       2.849835
                                                         0.988355       0.554319
                                                         0.344978       0.067245
                                                         0.099466       0.001940

                          1       7    5dx2             10.077428      -2.715373
                                                         5.847736      -4.020640
                                                         2.494033      -1.397569
                                                         0.988355      -0.076143
                                                         0.344978       0.033435
                                                         0.099466       0.026032
                          1       7    5dxy             10.077428      -4.703164
                                                         5.847736      -6.963952
                                                         2.494033      -2.420661
                                                         0.988355      -0.131883
                                                         0.344978       0.057911
                                                         0.099466       0.045088
                          1       7    5dxz             10.077428      -4.703164
                                                         5.847736      -6.963952
                                                         2.494033      -2.420661
                                                         0.988355      -0.131883
                                                         0.344978       0.057911
                                                         0.099466       0.045088
                          1       7    5dy2             10.077428      -2.715373
                                                         5.847736      -4.020640
                                                         2.494033      -1.397569
                                                         0.988355      -0.076143
                                                         0.344978       0.033435
                                                         0.099466       0.026032
                          1       7    5dyz             10.077428      -4.703164
                                                         5.847736      -6.963952
                                                         2.494033      -2.420661
                                                         0.988355      -0.131883
                                                         0.344978       0.057911
                                                         0.099466       0.045088
                          1       7    5dz2             10.077428      -2.715373
                                                         5.847736      -4.020640
                                                         2.494033      -1.397569
                                                         0.988355      -0.076143
                                                         0.344978       0.033435
                                                         0.099466       0.026032

                          1       8    5fx3             10.077428      -0.467694
                                                         5.847736       0.618100
                                                         2.494033       0.066069
                                                         0.988355       0.262898
                                                         0.344978       0.004720
                                                         0.099466       0.007748
                          1       8    5fx2y            10.077428      -1.045795
                                                         5.847736       1.382114
                                                         2.494033       0.147734
                                                         0.988355       0.587859
                                                         0.344978       0.010555
                                                         0.099466       0.017325
                          1       8    5fx2z            10.077428      -1.045795
                                                         5.847736       1.382114
                                                         2.494033       0.147734
                                                         0.988355       0.587859
                                                         0.344978       0.010555
                                                         0.099466       0.017325
                          1       8    5fxy2            10.077428      -1.045795
                                                         5.847736       1.382114
                                                         2.494033       0.147734
                                                         0.988355       0.587859
                                                         0.344978       0.010555
                                                         0.099466       0.017325
                          1       8    5fxyz            10.077428      -1.811371
                                                         5.847736       2.393892
                                                         2.494033       0.255883
                                                         0.988355       1.018201
                                                         0.344978       0.018282
                                                         0.099466       0.030008
                          1       8    5fxz2            10.077428      -1.045795
                                                         5.847736       1.382114
                                                         2.494033       0.147734
                                                         0.988355       0.587859
                                                         0.344978       0.010555
                                                         0.099466       0.017325
                          1       8    5fy3             10.077428      -0.467694
                                                         5.847736       0.618100
                                                         2.494033       0.066069
                                                         0.988355       0.262898
                                                         0.344978       0.004720
                                                         0.099466       0.007748
                          1       8    5fy2z            10.077428      -1.045795
                                                         5.847736       1.382114
                                                         2.494033       0.147734
                                                         0.988355       0.587859
                                                         0.344978       0.010555
                                                         0.099466       0.017325
                          1       8    5fyz2            10.077428      -1.045795
                                                         5.847736       1.382114
                                                         2.494033       0.147734
                                                         0.988355       0.587859
                                                         0.344978       0.010555
                                                         0.099466       0.017325
                          1       8    5fz3             10.077428      -0.467694
                                                         5.847736       0.618100
                                                         2.494033       0.066069
                                                         0.988355       0.262898
                                                         0.344978       0.004720
                                                         0.099466       0.007748

       Atomic covalent radius [Angstrom]:                                  1.150

       Atomic van der Waals radius [Angstrom]:                             1.630

     GTH Potential information for                                   GTH-PBE-q18

       Description:                       Goedecker-Teter-Hutter pseudopotential
                                           Goedecker et al., PRB 54, 1703 (1996)
                                          Hartwigsen et al., PRB 58, 3641 (1998)
                                                      Krack, TCA 114, 145 (2005)

       Gaussian exponent of the core charge distribution:               4.081633
       Electronic configuration (s p d ...):                           4   6   8

       Parameters of the local part of the GTH pseudopotential:

                          rloc        C1          C2          C3          C4
                        0.350000    2.102166    0.648484

       Parameters of the non-local part of the GTH pseudopotential:

                   l      r(l)      h(i,j,l)

                   0    0.261295    0.622658    9.970227
                                    9.970227  -12.871507
                   1    0.224253  -11.142708   12.429566
                                   12.429566  -14.706861
                   2    0.215348  -12.628146


 MOLECULE KIND INFORMATION


 All atoms are their own molecule, skipping detailed information


 TOTAL NUMBERS AND MAXIMUM NUMBERS

  Total number of            - Atomic kinds:                                   2
                             - Atoms:                                         32
                             - Shell sets:                                    32
                             - Shells:                                       256
                             - Primitive Cartesian functions:                192
                             - Cartesian basis functions:                    992
                             - Spherical basis functions:                    832

  Maximum angular momentum of- Orbital basis functions:                        3
                             - Local part of the GTH pseudopotential:          2
                             - Non-local part of the GTH pseudopotential:      3


 MODULE QUICKSTEP: ATOMIC COORDINATES IN ANGSTROM

   Atom Kind Element         X             Y             Z       Z(eff)     Mass
      1    1 Ni   28      0.876298      0.876298      7.370500  18.0000  58.6934
      2    1 Ni   28      0.876298      4.382298      7.370500  18.0000  58.6934
      3    1 Ni   28      2.629298      2.629298      7.370500  18.0000  58.6934
      4    1 Ni   28      2.629298      6.135298      7.370500  18.0000  58.6934
      5    1 Ni   28      4.382298      0.876298      7.370500  18.0000  58.6934
      6    1 Ni   28      4.382298      4.382298      7.370500  18.0000  58.6934
      7    1 Ni   28      6.135298      2.629298      7.370500  18.0000  58.6934
      8    1 Ni   28      6.135298      6.135298      7.370500  18.0000  58.6934
      9    2 Ni   28      0.876298      2.629298      9.123500  18.0000  58.6934
     10    2 Ni   28      0.876298      6.135298      9.123500  18.0000  58.6934
     11    2 Ni   28      2.629298      0.876298      9.123500  18.0000  58.6934
     12    2 Ni   28      2.629298      4.382298      9.123500  18.0000  58.6934
     13    2 Ni   28      4.382298      2.629298      9.123500  18.0000  58.6934
     14    2 Ni   28      4.382298      6.135298      9.123500  18.0000  58.6934
     15    2 Ni   28      6.135298      0.876298      9.123500  18.0000  58.6934
     16    2 Ni   28      6.135298      4.382298      9.123500  18.0000  58.6934
     17    2 Ni   28      0.876298      0.876298     10.876500  18.0000  58.6934
     18    2 Ni   28      0.876298      4.382298     10.876500  18.0000  58.6934
     19    2 Ni   28      2.629298      2.629298     10.876500  18.0000  58.6934
     20    2 Ni   28      2.629298      6.135298     10.876500  18.0000  58.6934
     21    2 Ni   28      4.382298      0.876298     10.876500  18.0000  58.6934
     22    2 Ni   28      4.382298      4.382298     10.876500  18.0000  58.6934
     23    2 Ni   28      6.135298      2.629298     10.876500  18.0000  58.6934
     24    2 Ni   28      6.135298      6.135298     10.876500  18.0000  58.6934
     25    1 Ni   28      0.876298      2.629298     12.629500  18.0000  58.6934
     26    1 Ni   28      0.876298      6.135298     12.629500  18.0000  58.6934
     27    1 Ni   28      2.629298      0.876298     12.629500  18.0000  58.6934
     28    1 Ni   28      2.629298      4.382298     12.629500  18.0000  58.6934
     29    1 Ni   28      4.382298      2.629298     12.629500  18.0000  58.6934
     30    1 Ni   28      4.382298      6.135298     12.629500  18.0000  58.6934
     31    1 Ni   28      6.135298      0.876298     12.629500  18.0000  58.6934
     32    1 Ni   28      6.135298      4.382298     12.629500  18.0000  58.6934



 SCF PARAMETERS         Density guess:                                    ATOMIC
                        --------------------------------------------------------
                        max_scf:                                             500
                        max_scf_history:                                       0
                        max_diis:                                              4
                        --------------------------------------------------------
                        eps_scf:                                        5.00E-04
                        eps_scf_history:                                0.00E+00
                        eps_diis:                                       1.00E-01
                        eps_eigval:                                     1.00E-05
                        --------------------------------------------------------
                        level_shift [a.u.]:                             0.000000
                        added MOs                                       534  553
                        --------------------------------------------------------
                        Mixing method:                            BROYDEN_MIXING
                                                charge density mixing in g-space
                        --------------------------------------------------------
                        Smear method:                                FERMI_DIRAC
                        Electronic temperature [K]:                       2000.0
                        Electronic temperature [a.u.]:                  6.33E-03
                        Accuracy threshold:                             1.00E-10
                        --------------------------------------------------------
                        No outer SCF

 PW_GRID| Information for grid number                                          1
 PW_GRID| Grid distributed over                                   128 processors
 PW_GRID| Real space group dimensions                                     8   16
 PW_GRID| the grid is blocked:                                               YES
 PW_GRID| Cutoff [a.u.]                                                    300.0
 PW_GRID| spherical cutoff:                                                   NO
 PW_GRID|   Bounds   1            -54      53                Points:         108
 PW_GRID|   Bounds   2            -54      53                Points:         108
 PW_GRID|   Bounds   3           -150     149                Points:         300
 PW_GRID| Volume element (a.u.^3)  0.1896E-02     Volume (a.u.^3)      6635.2971
 PW_GRID| Grid span                                                    FULLSPACE
 PW_GRID|   Distribution                         Average         Max         Min
 PW_GRID|   G-Vectors                            27337.5       28728       25272
 PW_GRID|   G-Rays                                 253.1         266         234
 PW_GRID|   Real Space Points                    27337.5       28728       25272

 PW_GRID| Information for grid number                                          2
 PW_GRID| Number of the reference grid                                         1
 PW_GRID| Grid distributed over                                   128 processors
 PW_GRID| Real space group dimensions                                     8   16
 PW_GRID| the grid is blocked:                                                NO
 PW_GRID| Cutoff [a.u.]                                                    100.0
 PW_GRID| spherical cutoff:                                                   NO
 PW_GRID|   Bounds   1            -30      29                Points:          60
 PW_GRID|   Bounds   2            -30      29                Points:          60
 PW_GRID|   Bounds   3            -90      89                Points:         180
 PW_GRID| Volume element (a.u.^3)  0.1024E-01     Volume (a.u.^3)      6635.2971
 PW_GRID| Grid span                                                    FULLSPACE
 PW_GRID|   Distribution                         Average         Max         Min
 PW_GRID|   G-Vectors                             5062.5       15960           0
 PW_GRID|   G-Rays                                  84.4         266           0
 PW_GRID|   Real Space Points                     5062.5        5760        3780

 PW_GRID| Information for grid number                                          3
 PW_GRID| Number of the reference grid                                         1
 PW_GRID| Grid distributed over                                   128 processors
 PW_GRID| Real space group dimensions                                     8   16
 PW_GRID| the grid is blocked:                                                NO
 PW_GRID| Cutoff [a.u.]                                                     33.3
 PW_GRID| spherical cutoff:                                                   NO
 PW_GRID|   Bounds   1            -18      17                Points:          36
 PW_GRID|   Bounds   2            -18      17                Points:          36
 PW_GRID|   Bounds   3            -50      49                Points:         100
 PW_GRID| Volume element (a.u.^3)  0.5120E-01     Volume (a.u.^3)      6635.2971
 PW_GRID| Grid span                                                    FULLSPACE
 PW_GRID|   Distribution                         Average         Max         Min
 PW_GRID|   G-Vectors                             1012.5        9576           0
 PW_GRID|   G-Rays                                  28.1         266           0
 PW_GRID|   Real Space Points                     1012.5        1500         800

 PW_GRID| Information for grid number                                          4
 PW_GRID| Number of the reference grid                                         1
 PW_GRID| Grid distributed over                                   128 processors
 PW_GRID| Real space group dimensions                                     8   16
 PW_GRID| the grid is blocked:                                                NO
 PW_GRID| Cutoff [a.u.]                                                     11.1
 PW_GRID| spherical cutoff:                                                   NO
 PW_GRID|   Bounds   1            -10       9                Points:          20
 PW_GRID|   Bounds   2            -10       9                Points:          20
 PW_GRID|   Bounds   3            -30      29                Points:          60
 PW_GRID| Volume element (a.u.^3)  0.2765         Volume (a.u.^3)      6635.2971
 PW_GRID| Grid span                                                    FULLSPACE
 PW_GRID|   Distribution                         Average         Max         Min
 PW_GRID|   G-Vectors                              187.5        3800           0
 PW_GRID|   G-Rays                                   9.4         190           0
 PW_GRID|   Real Space Points                      187.5         360         120

 PW_GRID| Information for grid number                                          5
 PW_GRID| Number of the reference grid                                         1
 PW_GRID| Grid distributed over                                   128 processors
 PW_GRID| Real space group dimensions                                     8   16
 PW_GRID| the grid is blocked:                                                NO
 PW_GRID| Cutoff [a.u.]                                                      3.7
 PW_GRID| spherical cutoff:                                                   NO
 PW_GRID|   Bounds   1             -6       5                Points:          12
 PW_GRID|   Bounds   2             -6       5                Points:          12
 PW_GRID|   Bounds   3            -18      17                Points:          36
 PW_GRID| Volume element (a.u.^3)   1.280         Volume (a.u.^3)      6635.2971
 PW_GRID| Grid span                                                    FULLSPACE
 PW_GRID|   Distribution                         Average         Max         Min
 PW_GRID|   G-Vectors                               40.5        1296           0
 PW_GRID|   G-Rays                                   3.4         108           0
 PW_GRID|   Real Space Points                       40.5          72           0

 POISSON| Solver                                                        PERIODIC
 POISSON| Periodicity                                                        XYZ

 RS_GRID| Information for grid number                                          1
 RS_GRID|   Bounds   1            -54      53                Points:         108
 RS_GRID|   Bounds   2            -54      53                Points:         108
 RS_GRID|   Bounds   3           -150     149                Points:         300
 RS_GRID| Real space distribution over                                  8 groups
 RS_GRID| Real space distribution along direction                              2
 RS_GRID| Border size                                                         28
 RS_GRID| Real space distribution over                                 16 groups
 RS_GRID| Real space distribution along direction                              3
 RS_GRID| Border size                                                         28
 RS_GRID|   Distribution                         Average         Max         Min
 RS_GRID|   Planes                                  69.5          70          69
 RS_GRID|   Distribution                         Average         Max         Min
 RS_GRID|   Planes                                  74.8          75          74

 RS_GRID| Information for grid number                                          2
 RS_GRID|   Bounds   1            -30      29                Points:          60
 RS_GRID|   Bounds   2            -30      29                Points:          60
 RS_GRID|   Bounds   3            -90      89                Points:         180
 RS_GRID| Real space fully replicated
 RS_GRID| Group size                                                           1

 RS_GRID| Information for grid number                                          3
 RS_GRID|   Bounds   1            -18      17                Points:          36
 RS_GRID|   Bounds   2            -18      17                Points:          36
 RS_GRID|   Bounds   3            -50      49                Points:         100
 RS_GRID| Real space fully replicated
 RS_GRID| Group size                                                           1

 RS_GRID| Information for grid number                                          4
 RS_GRID|   Bounds   1            -10       9                Points:          20
 RS_GRID|   Bounds   2            -10       9                Points:          20
 RS_GRID|   Bounds   3            -30      29                Points:          60
 RS_GRID| Real space fully replicated
 RS_GRID| Group size                                                           1

 RS_GRID| Information for grid number                                          5
 RS_GRID|   Bounds   1             -6       5                Points:          12
 RS_GRID|   Bounds   2             -6       5                Points:          12
 RS_GRID|   Bounds   3            -18      17                Points:          36
 RS_GRID| Real space fully replicated
 RS_GRID| Group size                                                           1

 Spin 1

 Number of electrons:                                                        297.600
 Number of occupied orbitals:                                                298
 Number of molecular orbitals:                                               832

 Spin 2

 Number of electrons:                                                        278.400
 Number of occupied orbitals:                                                279
 Number of molecular orbitals:                                               832

 Number of orbital functions:                                                832
 Number of independent orbital functions:                                    832

 Extrapolation method: initial_guess

 Atomic guess: The first density matrix is obtained in terms of atomic orbitals
               and electronic configurations assigned to each atomic kind

 Guess for atomic kind: Ni_i

 Electronic structure
    Total number of core electrons                                         10.00
    Total number of valence electrons                                      18.00
    Total number of electrons                                              28.00
    Multiplicity                                                         doublet
    Alpha Electrons
    S   [  1.00  1.00] 1.00  1.00
    P   [  3.00] 3.00
    D      4.35
    Beta Electrons
    S   [  1.00  1.00] 1.00  1.00
    P   [  3.00] 3.00
    D      3.65


 *******************************************************************************
                  Iteration          Convergence                     Energy [au]
 *******************************************************************************
                          1         1.51729                    -167.067424631347
                          2         15.3902                    -156.642654318634
                          3         2.33433                    -168.319355313541
                          4        0.206730                    -168.609905008081
                          5        0.814175E-01                -168.612873080494
                          6        0.173318E-01                -168.613470181066
                          7        0.290432E-02                -168.613543571401
                          8        0.311825E-02                -168.613543401474
                          9        0.179670E-03                -168.613544404477
                         10        0.169386E-02                -168.613544207811
                         11        0.473341E-03                -168.613544360253
                         12        0.165417E-03                -168.613544400419
                         13        0.162622E-03                -168.613544401489
                         14        0.158325E-03                -168.613544403900
                         15        0.177007E-03                -168.613544402509
                         16        0.138916E-03                -168.613544404900
                         17        0.934549E-04                -168.613544406149
                         18        0.119916E-03                -168.613544405789
                         19        0.131607E-03                -168.613544405591
                         20        0.169309E-03                -168.613544404773
                         21        0.551337E-04                -168.613544406656
                         22        0.382664E-04                -168.613544406759
                         23        0.378942E-04                -168.613544406765
                         24        0.381089E-04                -168.613544406765
                         25        0.390835E-04                -168.613544406759
                         26        0.308614E-04                -168.613544406841
                         27        0.205044E-04                -168.613544406892
                         28        0.200942E-04                -168.613544406893
                         29        0.199375E-04                -168.613544406893
                         30        0.200198E-04                -168.613544406894
                         31        0.161325E-04                -168.613544406903
                         32        0.330614E-05                -168.613544406925
                         33        0.238713E-05                -168.613544406926
                         34        0.265439E-05                -168.613544406926
                         35        0.277073E-05                -168.613544406926
                         36        0.335175E-05                -168.613544406926
                         37        0.148809E-05                -168.613544406927
                         38        0.133447E-05                -168.613544406927
                         39        0.918735E-06                -168.613544406927

 Energy components [Hartree]           Total Energy ::         -168.613544406927
                                        Band Energy ::          -26.569761966525
                                     Kinetic Energy ::           97.306723392622
                                   Potential Energy ::         -265.920267799548
                                      Virial (-V/T) ::            2.732804666812
                                        Core Energy ::         -299.567979157577
                                          XC Energy ::          -16.227189041387
                                     Coulomb Energy ::          147.181623792037
                       Total Pseudopotential Energy ::         -396.961043505191
                       Local Pseudopotential Energy ::         -362.648291121960
                    Nonlocal Pseudopotential Energy ::          -34.312752383230
                                        Confinement ::            0.863409549921

 Orbital energies  State     Spin  L     Occupation   Energy[a.u.]    Energy[eV]

                       1    alpha  0          1.000      -4.172666   -113.544030
                       2    alpha  0          1.000      -0.181431     -4.936983
                       1     beta  0          1.000      -4.140640   -112.672541
                       2     beta  0          1.000      -0.176372     -4.799339

                       1    alpha  1          3.000      -2.578739    -70.171064
                       1     beta  1          3.000      -2.547579    -69.323162

                       1    alpha  2          4.350      -0.327039     -8.899191
                       1     beta  2          3.650      -0.300569     -8.178887


 Total Electron Density at R=0:                                         0.030422

 Guess for atomic kind: Ni_b

 Electronic structure
    Total number of core electrons                                         10.00
    Total number of valence electrons                                      18.00
    Total number of electrons                                              28.00
    Multiplicity                                                         doublet
    Alpha Electrons
    S   [  1.00  1.00] 1.00  1.00
    P   [  3.00] 3.00
    D      4.25
    Beta Electrons
    S   [  1.00  1.00] 1.00  1.00
    P   [  3.00] 3.00
    D      3.75


 *******************************************************************************
                  Iteration          Convergence                     Energy [au]
 *******************************************************************************
                          1         1.51687                    -167.065012761055
                          2         14.9817                    -156.620431300845
                          3         2.25575                    -168.317311438693
                          4        0.189210                    -168.607926092750
                          5        0.708658E-01                -168.610773319290
                          6        0.122256E-01                -168.611238205502
                          7        0.598421E-02                -168.611272268995
                          8        0.528277E-02                -168.611272438110
                          9        0.104644E-02                -168.611275321653
                         10        0.260234E-02                -168.611274926630
                         11        0.975322E-03                -168.611275328217
                         12        0.161067E-03                -168.611275447773
                         13        0.147413E-03                -168.611275446839
                         14        0.115114E-03                -168.611275449434
                         15        0.167217E-03                -168.611275445436
                         16        0.255374E-04                -168.611275450531
                         17        0.418369E-04                -168.611275450414
                         18        0.393709E-04                -168.611275450477
                         19        0.239931E-04                -168.611275450542
                         20        0.173885E-04                -168.611275450557
                         21        0.851368E-05                -168.611275450578
                         22        0.849928E-05                -168.611275450580
                         23        0.544937E-05                -168.611275450584
                         24        0.540003E-05                -168.611275450586
                         25        0.613371E-05                -168.611275450584
                         26        0.311593E-06                -168.611275450588

 Energy components [Hartree]           Total Energy ::         -168.611275450588
                                        Band Energy ::          -26.568680144499
                                     Kinetic Energy ::           97.303659243130
                                   Potential Energy ::         -265.914934693718
                                      Virial (-V/T) ::            2.732835915546
                                        Core Energy ::         -299.566189183323
                                          XC Energy ::          -16.224592878785
                                     Coulomb Energy ::          147.179506611520
                       Total Pseudopotential Energy ::         -396.956189041778
                       Local Pseudopotential Energy ::         -362.645043136649
                    Nonlocal Pseudopotential Energy ::          -34.311145905129
                                        Confinement ::            0.863406153250

 Orbital energies  State     Spin  L     Occupation   Energy[a.u.]    Energy[eV]

                       1    alpha  0          1.000      -4.168335   -113.426177
                       2    alpha  0          1.000      -0.180730     -4.917906
                       1     beta  0          1.000      -4.145459   -112.803683
                       2     beta  0          1.000      -0.177117     -4.819606

                       1    alpha  1          3.000      -2.574525    -70.056390
                       1     beta  1          3.000      -2.552268    -69.450746

                       1    alpha  2          4.250      -0.323446     -8.801405
                       1     beta  2          3.750      -0.304537     -8.286881


 Total Electron Density at R=0:                                         0.030429

 Spin 1
 Re-scaling the density matrix to get the right number of electrons for spin 1
                  # Electrons              Trace(P)               Scaling factor
                        297.600             297.600                        1.000

 Spin 2
 Re-scaling the density matrix to get the right number of electrons for spin 2
                  # Electrons              Trace(P)               Scaling factor
                        278.400             278.400                        1.000


 SCF WAVEFUNCTION OPTIMIZATION

  Step     Update method      Time    Convergence         Total energy    Change
  ------------------------------------------------------------------------------
     1 NoMix/Diag. 0.10E-02    1.5     0.87318318     -5426.4441344177 -5.43E+03
     2 Broy./Diag. 0.10E-02    1.5     0.00125259     -5310.9619326626  1.15E+02
[...]
   116 Broy./Diag. 0.10E-02    1.5     0.06030067     -5418.6440314604 -2.04E-01
   117 Broy./Diag. 0.10E-02    1.5     0.04535772     -5419.6989359515 -1.05E+00
   118 Broy./Diag. 0.10E-02    1.5     0.01176702     -5418.7221449434  9.77E-01
   119 Broy./Diag. 0.10E-02    1.5     0.00342293     -5418.5703116288  1.52E-01
   120 Broy./Diag. 0.10E-02    1.5     0.02435547     -5418.9316168111 -3.61E-01
   121 Broy./Diag. 0.10E-02    1.5     0.01593487     -5419.4190016491 -4.87E-01
   122 Broy./Diag. 0.10E-02    1.5     0.01322272     -5419.0395677140  3.79E-01
   123 Broy./Diag. 0.10E-02    1.5     0.00413781     -5419.0579541227 -1.84E-02
   124 Broy./Diag. 0.10E-02    1.5     0.03205432     -5419.1099300394 -5.20E-02
   125 Broy./Diag. 0.10E-02    1.5     0.02852949     -5418.6685972958  4.41E-01
   126 Broy./Diag. 0.10E-02    1.5     0.01602419     -5418.7212432470 -5.26E-02
   127 Broy./Diag. 0.10E-02    1.5     0.00781108     -5418.5094662155  2.12E-01
   128 Broy./Diag. 0.10E-02    1.5     0.03994918     -5418.3532998996  1.56E-01
   129 Broy./Diag. 0.10E-02    1.5     0.02546221     -5418.3476968208  5.60E-03
   130 Broy./Diag. 0.10E-02    1.5     0.01367926     -5418.3653959263 -1.77E-02
   131 Broy./Diag. 0.10E-02    1.5     0.01262449     -5418.1080811294  2.57E-01
   132 Broy./Diag. 0.10E-02    1.5     0.04399967     -5418.2424268781 -1.34E-01
   133 Broy./Diag. 0.10E-02    1.5     0.01257442     -5419.0383398161 -7.96E-01
   134 Broy./Diag. 0.10E-02    1.5     0.00666874     -5419.0371577415  1.18E-03
   135 Broy./Diag. 0.10E-02    1.5     0.04854785     -5419.3610376298 -3.24E-01
   136 Broy./Diag. 0.10E-02    1.5     0.06214136     -5419.8970364685 -5.36E-01
   137 Broy./Diag. 0.10E-02    1.5     0.03332772     -5420.1088974083 -2.12E-01
   138 Broy./Diag. 0.10E-02    1.5     0.04040291     -5419.8944115535  2.14E-01
   139 Broy./Diag. 0.10E-02    1.5     0.04111987     -5419.6575129448  2.37E-01
   140 Broy./Diag. 0.10E-02    1.5     0.04539131     -5419.8824732939 -2.25E-01
   141 Broy./Diag. 0.10E-02    1.5     0.02264724     -5419.2840916535  5.98E-01
   142 Broy./Diag. 0.10E-02    1.5     0.00859331     -5419.6362651928 -3.52E-01
   143 Broy./Diag. 0.10E-02    1.5     0.05471968     -5419.8188155578 -1.83E-01
   144 Broy./Diag. 0.10E-02    1.5     0.03841509     -5420.5624411437 -7.44E-01
   145 Broy./Diag. 0.10E-02    1.5     0.08115509     -5419.5293493050  1.03E+00
   146 Broy./Diag. 0.10E-02    1.5     0.06892194     -5419.1848723870  3.44E-01
   147 Broy./Diag. 0.10E-02    1.5     0.01643722     -5419.6184551255 -4.34E-01
   148 Broy./Diag. 0.10E-02    1.5     0.00805167     -5419.5853176543  3.31E-02
   149 Broy./Diag. 0.10E-02    1.5     0.01179058     -5419.3972507874  1.88E-01
   150 Broy./Diag. 0.10E-02    1.5     0.01132540     -5419.3899610086  7.29E-03
   151 Broy./Diag. 0.10E-02    1.5     0.02579340     -5419.5310859658 -1.41E-01
   152 Broy./Diag. 0.10E-02    1.5     0.01269599     -5418.8964202917  6.35E-01
   153 Broy./Diag. 0.10E-02    1.5     0.03873662     -5419.1191137302 -2.23E-01
   154 Broy./Diag. 0.10E-02    1.5     0.03111465     -5419.7133608112 -5.94E-01
   155 Broy./Diag. 0.10E-02    1.5     0.04455843     -5419.1274037672  5.86E-01
   156 Broy./Diag. 0.10E-02    1.5     0.00417600     -5419.0567657610  7.06E-02
   157 Broy./Diag. 0.10E-02    1.5     0.02616640     -5419.3513056398 -2.95E-01
   158 Broy./Diag. 0.10E-02    1.5     0.06369157     -5419.8772833748 -5.26E-01
   159 Broy./Diag. 0.10E-02    1.5     0.01915674     -5419.1781556805  6.99E-01
   160 Broy./Diag. 0.10E-02    1.5     0.03706073     -5419.3470445369 -1.69E-01
   161 Broy./Diag. 0.10E-02    1.5     0.07289106     -5418.8552139745  4.92E-01
   162 Broy./Diag. 0.10E-02    1.5     0.00979355     -5419.9335143607 -1.08E+00
   163 Broy./Diag. 0.10E-02    1.5     0.01958980     -5419.6013062110  3.32E-01
   164 Broy./Diag. 0.10E-02    1.5     0.01569142     -5419.5362764353  6.50E-02
   165 Broy./Diag. 0.10E-02    1.5     0.02735089     -5419.5147843168  2.15E-02
   166 Broy./Diag. 0.10E-02    1.5     0.02101518     -5420.2864741289 -7.72E-01
   167 Broy./Diag. 0.10E-02    1.5     0.01613145     -5420.2623575905  2.41E-02
   168 Broy./Diag. 0.10E-02    1.5     0.01449849     -5420.5322324525 -2.70E-01
   169 Broy./Diag. 0.10E-02    1.5     0.03299010     -5420.6732845175 -1.41E-01
   170 Broy./Diag. 0.10E-02    1.5     0.02030860     -5420.3960871018  2.77E-01
   171 Broy./Diag. 0.10E-02    1.5     0.00869203     -5420.3528829459  4.32E-02
   172 Broy./Diag. 0.10E-02    1.5     0.02475236     -5420.2366720902  1.16E-01
   173 Broy./Diag. 0.10E-02    1.5     0.01283800     -5419.8074699255  4.29E-01
   174 Broy./Diag. 0.10E-02    1.5     0.00594062     -5420.0168584190 -2.09E-01
   175 Broy./Diag. 0.10E-02    1.5     0.03227243     -5419.9427224952  7.41E-02
   176 Broy./Diag. 0.10E-02    1.5     0.02122523     -5420.2677276292 -3.25E-01
   177 Broy./Diag. 0.10E-02    1.5     0.07533455     -5420.5011809584 -2.33E-01
   178 Broy./Diag. 0.10E-02    1.5     0.02202276     -5419.4190026039  1.08E+00
   179 Broy./Diag. 0.10E-02    1.5     0.05849387     -5419.2123249828  2.07E-01
   180 Broy./Diag. 0.10E-02    1.5     0.02790793     -5420.0026135561 -7.90E-01
   181 Broy./Diag. 0.10E-02    1.5     0.03043605     -5420.2146247696 -2.12E-01
   182 Broy./Diag. 0.10E-02    1.5     0.07193077     -5420.0998070085  1.15E-01
   183 Broy./Diag. 0.10E-02    1.5     0.02891925     -5419.5925301779  5.07E-01
   184 Broy./Diag. 0.10E-02    1.5     0.02335086     -5419.7332199808 -1.41E-01
   185 Broy./Diag. 0.10E-02    1.5     0.05640530     -5419.4999574656  2.33E-01
   186 Broy./Diag. 0.10E-02    1.5     0.02880507     -5419.9937512765 -4.94E-01
   187 Broy./Diag. 0.10E-02    1.5     0.02924131     -5420.3175091972 -3.24E-01
   188 Broy./Diag. 0.10E-02    1.5     0.08582924     -5419.7269617516  5.91E-01
   189 Broy./Diag. 0.10E-02    1.5     0.03125175     -5419.8140362251 -8.71E-02
   190 Broy./Diag. 0.10E-02    1.5     0.06088671     -5420.0037081244 -1.90E-01
   191 Broy./Diag. 0.10E-02    1.5     0.00855775     -5419.2967995118  7.07E-01
   192 Broy./Diag. 0.10E-02    1.5     0.06149008     -5419.0977440621  1.99E-01
   193 Broy./Diag. 0.10E-02    1.5     0.05129129     -5419.3008422885 -2.03E-01
   194 Broy./Diag. 0.10E-02    1.5     0.00951380     -5418.8572141960  4.44E-01
   195 Broy./Diag. 0.10E-02    1.5     0.00980921     -5419.1327953916 -2.76E-01
   196 Broy./Diag. 0.10E-02    1.5     0.01703894     -5419.3528263707 -2.20E-01
   197 Broy./Diag. 0.10E-02    1.5     0.00588213     -5419.1374865556  2.15E-01
   198 Broy./Diag. 0.10E-02    1.5     0.00864672     -5419.1176909702  1.98E-02
   199 Broy./Diag. 0.10E-02    1.5     0.00699889     -5419.0847284160  3.30E-02
   200 Broy./Diag. 0.10E-02    1.5     0.04494744     -5418.7912049786  2.94E-01
   201 Broy./Diag. 0.10E-02    1.5     0.02991787     -5417.8530495035  9.38E-01
   202 Broy./Diag. 0.10E-02    1.5     0.03650534     -5418.5148210215 -6.62E-01
   203 Broy./Diag. 0.10E-02    1.5     0.03031677     -5418.4169816795  9.78E-02
   204 Broy./Diag. 0.10E-02    1.5     0.02797525     -5417.8916909369  5.25E-01
   205 Broy./Diag. 0.10E-02    1.5     0.02911687     -5417.9330488605 -4.14E-02
   206 Broy./Diag. 0.10E-02    1.5     0.05074901     -5418.0655009301 -1.32E-01
   207 Broy./Diag. 0.10E-02    1.5     0.01454586     -5418.8045435943 -7.39E-01
   208 Broy./Diag. 0.10E-02    1.5     0.03830955     -5419.0069649015 -2.02E-01
   209 Broy./Diag. 0.10E-02    1.5     0.00643259     -5419.0558467047 -4.89E-02
   210 Broy./Diag. 0.10E-02    1.5     0.04296750     -5419.0917380757 -3.59E-02
   211 Broy./Diag. 0.10E-02    1.5     0.02862615     -5419.7704385340 -6.79E-01
   212 Broy./Diag. 0.10E-02    1.5     0.04169876     -5419.6557302409  1.15E-01
   213 Broy./Diag. 0.10E-02    1.5     0.04825366     -5418.9413431894  7.14E-01
   214 Broy./Diag. 0.10E-02    1.5     0.01076320     -5419.0885193202 -1.47E-01
   215 Broy./Diag. 0.10E-02    1.5     0.03779539     -5419.0358593736  5.27E-02
   216 Broy./Diag. 0.10E-02    1.5     0.00978555     -5419.2356223587 -2.00E-01
   217 Broy./Diag. 0.10E-02    1.5     0.03850697     -5419.4415006831 -2.06E-01
   218 Broy./Diag. 0.10E-02    1.5     0.03859276     -5418.5742919828  8.67E-01
   219 Broy./Diag. 0.10E-02    1.5     0.01463919     -5418.3363815462  2.38E-01
   220 Broy./Diag. 0.10E-02    1.5     0.02522543     -5418.2430800212  9.33E-02
   221 Broy./Diag. 0.10E-02    1.5     0.01071467     -5418.3678874592 -1.25E-01
   222 Broy./Diag. 0.10E-02    1.5     0.03954944     -5418.4047917063 -3.69E-02
   223 Broy./Diag. 0.10E-02    1.5     0.05121144     -5418.9198036026 -5.15E-01
   224 Broy./Diag. 0.10E-02    1.5     0.02428165     -5419.6556324268 -7.36E-01
   225 Broy./Diag. 0.10E-02    1.5     0.04014951     -5419.0136866894  6.42E-01
   226 Broy./Diag. 0.10E-02    1.5     0.02208980     -5419.1927220162 -1.79E-01
   227 Broy./Diag. 0.10E-02    1.5     0.03232198     -5419.1290426117  6.37E-02
   228 Broy./Diag. 0.10E-02    1.5     0.02799885     -5419.2668507191 -1.38E-01
   229 Broy./Diag. 0.10E-02    1.5     0.04108252     -5419.6399883999 -3.73E-01
   230 Broy./Diag. 0.10E-02    1.5     0.04808584     -5418.8563035022  7.84E-01
   231 Broy./Diag. 0.10E-02    1.5     0.04382348     -5418.6235554074  2.33E-01
   232 Broy./Diag. 0.10E-02    1.5     0.13395508     -5418.6058111563  1.77E-02
   233 Broy./Diag. 0.10E-02    1.5     0.00898406     -5420.0386478151 -1.43E+00
   234 Broy./Diag. 0.10E-02    1.5     0.01383913     -5420.3073705616 -2.69E-01
   235 Broy./Diag. 0.10E-02    1.5     0.01995645     -5420.7353307480 -4.28E-01
   236 Broy./Diag. 0.10E-02    1.5     0.00653918     -5419.4193664902  1.32E+00
   237 Broy./Diag. 0.10E-02    1.5     0.00971921     -5419.3131671710  1.06E-01
   238 Broy./Diag. 0.10E-02    1.5     0.00645655     -5419.0640221292  2.49E-01
   239 Broy./Diag. 0.10E-02    1.5     0.05475327     -5419.3020096366 -2.38E-01
   240 Broy./Diag. 0.10E-02    1.5     0.03097760     -5418.5722871604  7.30E-01
   241 Broy./Diag. 0.10E-02    1.5     0.01630565     -5418.6848437168 -1.13E-01
   242 Broy./Diag. 0.10E-02    1.5     0.05035804     -5418.9321396432 -2.47E-01
   243 Broy./Diag. 0.10E-02    1.5     0.13735593     -5418.9600955304 -2.80E-02
   244 Broy./Diag. 0.10E-02    1.5     0.00548586     -5419.4940335424 -5.34E-01
   245 Broy./Diag. 0.10E-02    1.5     0.01929497     -5419.9707359210 -4.77E-01
   246 Broy./Diag. 0.10E-02    1.5     0.01709815     -5420.1860542990 -2.15E-01
   247 Broy./Diag. 0.10E-02    1.5     0.01513742     -5420.0553086322  1.31E-01
   248 Broy./Diag. 0.10E-02    1.5     0.01967601     -5420.3241876750 -2.69E-01
   249 Broy./Diag. 0.10E-02    1.5     0.03108184     -5420.6398070539 -3.16E-01
   250 Broy./Diag. 0.10E-02    1.5     0.02173648     -5420.3940976831  2.46E-01
   251 Broy./Diag. 0.10E-02    1.5     0.04790898     -5420.3185121478  7.56E-02
   252 Broy./Diag. 0.10E-02    1.5     0.09052824     -5420.0007020621  3.18E-01
   253 Broy./Diag. 0.10E-02    1.5     0.00685914     -5420.6251750873 -6.24E-01
   254 Broy./Diag. 0.10E-02    1.5     0.02193612     -5420.3838151951  2.41E-01
   255 Broy./Diag. 0.10E-02    1.5     0.00175644     -5419.9263133549  4.58E-01
   256 Broy./Diag. 0.10E-02    1.5     0.00521831     -5419.9409451847 -1.46E-02
   257 Broy./Diag. 0.10E-02    1.5     0.00403566     -5419.8144502708  1.26E-01
   258 Broy./Diag. 0.10E-02    1.5     0.01269084     -5419.7441661980  7.03E-02
   259 Broy./Diag. 0.10E-02    1.5     0.03964686     -5419.8709505801 -1.27E-01
   260 Broy./Diag. 0.10E-02    1.5     0.05273093     -5420.1603442876 -2.89E-01
   261 Broy./Diag. 0.10E-02    1.5     0.00216816     -5419.5661712836  5.94E-01
   262 Broy./Diag. 0.10E-02    1.5     0.04128539     -5419.4991548590  6.70E-02
   263 Broy./Diag. 0.10E-02    1.5     0.00808908     -5419.7685341820 -2.69E-01
   264 Broy./Diag. 0.10E-02    1.5     0.01564362     -5419.7534136884  1.51E-02
   265 Broy./Diag. 0.10E-02    1.5     0.01051070     -5419.7939230687 -4.05E-02
   266 Broy./Diag. 0.10E-02    1.5     0.03459239     -5419.8462403198 -5.23E-02
   267 Broy./Diag. 0.10E-02    1.5     0.03855232     -5419.8811247753 -3.49E-02
   268 Broy./Diag. 0.10E-02    1.5     0.03008364     -5419.6020274112  2.79E-01
   269 Broy./Diag. 0.10E-02    1.5     0.03471761     -5419.5367796367  6.52E-02
   270 Broy./Diag. 0.10E-02    1.5     0.04512185     -5420.1859174869 -6.49E-01
   271 Broy./Diag. 0.10E-02    1.5     0.02379675     -5419.6494013674  5.37E-01
   272 Broy./Diag. 0.10E-02    1.5     0.03471917     -5419.1417367699  5.08E-01
   273 Broy./Diag. 0.10E-02    1.5     0.01598467     -5419.0135983342  1.28E-01
   274 Broy./Diag. 0.10E-02    1.5     0.02372091     -5419.1845816073 -1.71E-01
   275 Broy./Diag. 0.10E-02    1.5     0.01067333     -5419.1253285303  5.93E-02
   276 Broy./Diag. 0.10E-02    1.5     0.01365440     -5419.2287214735 -1.03E-01
   277 Broy./Diag. 0.10E-02    1.5     0.00304047     -5419.3733942298 -1.45E-01
   278 Broy./Diag. 0.10E-02    1.5     0.02462119     -5419.3066851598  6.67E-02
   279 Broy./Diag. 0.10E-02    1.5     0.02085621     -5419.0504106040  2.56E-01
   280 Broy./Diag. 0.10E-02    1.5     0.02591915     -5419.2617150161 -2.11E-01
   281 Broy./Diag. 0.10E-02    1.5     0.04510156     -5418.9927398217  2.69E-01
   282 Broy./Diag. 0.10E-02    1.5     0.02702614     -5419.0994116652 -1.07E-01
   283 Broy./Diag. 0.10E-02    1.5     0.02271832     -5419.0597623650  3.96E-02
   284 Broy./Diag. 0.10E-02    1.5     0.06156987     -5418.9592957093  1.00E-01
   285 Broy./Diag. 0.10E-02    1.5     0.04262075     -5419.4501461612 -4.91E-01
   286 Broy./Diag. 0.10E-02    1.5     0.03041341     -5419.5266433827 -7.65E-02
   287 Broy./Diag. 0.10E-02    1.5     0.03182288     -5419.6543205739 -1.28E-01
   288 Broy./Diag. 0.10E-02    1.5     0.01657899     -5419.7968157108 -1.42E-01
   289 Broy./Diag. 0.10E-02    1.5     0.03535743     -5419.8246658831 -2.79E-02
   290 Broy./Diag. 0.10E-02    1.5     0.05404517     -5419.7758402177  4.88E-02
   291 Broy./Diag. 0.10E-02    1.5     0.08756847     -5419.7131171249  6.27E-02
   292 Broy./Diag. 0.10E-02    1.5     0.12482886     -5419.5145528824  1.99E-01
   293 Broy./Diag. 0.10E-02    1.5     0.03498049     -5419.9235399741 -4.09E-01
   294 Broy./Diag. 0.10E-02    1.5     0.07394295     -5420.0163408133 -9.28E-02
   295 Broy./Diag. 0.10E-02    1.5     0.00852612     -5419.7586853525  2.58E-01
   296 Broy./Diag. 0.10E-02    1.5     0.02166230     -5419.7230108365  3.57E-02
   297 Broy./Diag. 0.10E-02    1.5     0.04716399     -5419.3515357576  3.71E-01
   298 Broy./Diag. 0.10E-02    1.5     0.01312544     -5419.3350293405  1.65E-02
   299 Broy./Diag. 0.10E-02    1.5     0.01437662     -5419.4458070663 -1.11E-01
   300 Broy./Diag. 0.10E-02    1.5     0.01831333     -5419.4511052343 -5.30E-03
   301 Broy./Diag. 0.10E-02    1.5     0.04024125     -5419.5342598654 -8.32E-02
   302 Broy./Diag. 0.10E-02    1.5     0.02969047     -5419.7093408887 -1.75E-01
   303 Broy./Diag. 0.10E-02    1.5     0.01583614     -5419.7634071604 -5.41E-02
   304 Broy./Diag. 0.10E-02    1.5     0.00389084     -5419.8477503935 -8.43E-02
   305 Broy./Diag. 0.10E-02    1.5     0.02257907     -5419.6346030660  2.13E-01
   306 Broy./Diag. 0.10E-02    1.5     0.00207924     -5419.3997779319  2.35E-01
   307 Broy./Diag. 0.10E-02    1.5     0.06675127     -5419.3992721988  5.06E-04
   308 Broy./Diag. 0.10E-02    1.5     0.01050630     -5419.5718329190 -1.73E-01
   309 Broy./Diag. 0.10E-02    1.5     0.00435676     -5419.5306353242  4.12E-02
   310 Broy./Diag. 0.10E-02    1.5     0.01006994     -5419.5329052978 -2.27E-03
   311 Broy./Diag. 0.10E-02    1.5     0.01091621     -5419.6020520899 -6.91E-02
   312 Broy./Diag. 0.10E-02    1.5     0.03066717     -5419.6980218316 -9.60E-02
   313 Broy./Diag. 0.10E-02    1.5     0.02686555     -5419.7141646403 -1.61E-02
   314 Broy./Diag. 0.10E-02    1.5     0.00847500     -5419.2323308709  4.82E-01
   315 Broy./Diag. 0.10E-02    1.5     0.03065334     -5418.8415529328  3.91E-01
   316 Broy./Diag. 0.10E-02    1.5     0.01952768     -5418.6323246201  2.09E-01
   317 Broy./Diag. 0.10E-02    1.5     0.01776992     -5418.0655393684  5.67E-01
   318 Broy./Diag. 0.10E-02    1.5     0.02140619     -5417.7872310209  2.78E-01
   319 Broy./Diag. 0.10E-02    1.5     0.01343075     -5417.7588389688  2.84E-02
   320 Broy./Diag. 0.10E-02    1.5     0.00203670     -5418.0798937164 -3.21E-01
   321 Broy./Diag. 0.10E-02    1.5     0.00966613     -5418.1562016538 -7.63E-02
   322 Broy./Diag. 0.10E-02    1.5     0.02637065     -5418.2251632594 -6.90E-02
   323 Broy./Diag. 0.10E-02    1.5     0.02126948     -5418.5819083579 -3.57E-01
   324 Broy./Diag. 0.10E-02    1.5     0.02963043     -5418.0579847034  5.24E-01
   325 Broy./Diag. 0.10E-02    1.5     0.00357700     -5418.2088774152 -1.51E-01
   326 Broy./Diag. 0.10E-02    1.5     0.01415102     -5418.0068363947  2.02E-01
   327 Broy./Diag. 0.10E-02    1.5     0.02365383     -5417.8264951565  1.80E-01
   328 Broy./Diag. 0.10E-02    1.5     0.03868520     -5417.9094951073 -8.30E-02
   329 Broy./Diag. 0.10E-02    1.5     0.02168589     -5417.9346083888 -2.51E-02
   330 Broy./Diag. 0.10E-02    1.5     0.00945147     -5418.2008102170 -2.66E-01
   331 Broy./Diag. 0.10E-02    1.5     0.05087630     -5418.4347709008 -2.34E-01
   332 Broy./Diag. 0.10E-02    1.5     0.00912518     -5418.3716161597  6.32E-02
   333 Broy./Diag. 0.10E-02    1.5     0.03397490     -5418.1799100396  1.92E-01
   334 Broy./Diag. 0.10E-02    1.5     0.02654396     -5418.2069686982 -2.71E-02
   335 Broy./Diag. 0.10E-02    1.5     0.02149858     -5418.2354111708 -2.84E-02
   336 Broy./Diag. 0.10E-02    1.5     0.03118733     -5418.2114154279  2.40E-02
   337 Broy./Diag. 0.10E-02    1.5     0.02694663     -5418.3830412045 -1.72E-01
   338 Broy./Diag. 0.10E-02    1.5     0.02563751     -5418.5709294703 -1.88E-01
   339 Broy./Diag. 0.10E-02    1.5     0.01093195     -5418.7715514831 -2.01E-01
   340 Broy./Diag. 0.10E-02    1.5     0.00574595     -5418.8636266484 -9.21E-02
   341 Broy./Diag. 0.10E-02    1.5     0.01434698     -5418.8693544760 -5.73E-03
   342 Broy./Diag. 0.10E-02    1.5     0.05430601     -5418.8217156780  4.76E-02
   343 Broy./Diag. 0.10E-02    1.5     0.03801230     -5418.9169967220 -9.53E-02
   344 Broy./Diag. 0.10E-02    1.5     0.01234897     -5418.8308557945  8.61E-02
   345 Broy./Diag. 0.10E-02    1.5     0.00686681     -5418.6853403817  1.46E-01
   346 Broy./Diag. 0.10E-02    1.5     0.02313725     -5418.5708277462  1.15E-01
   347 Broy./Diag. 0.10E-02    1.5     0.01992654     -5419.1268767269 -5.56E-01
   348 Broy./Diag. 0.10E-02    1.5     0.01798722     -5419.1495359504 -2.27E-02
   349 Broy./Diag. 0.10E-02    1.5     0.00228750     -5419.3090299413 -1.59E-01
   350 Broy./Diag. 0.10E-02    1.5     0.00967409     -5419.4578568691 -1.49E-01
   351 Broy./Diag. 0.10E-02    1.5     0.03193250     -5419.5142499489 -5.64E-02
   352 Broy./Diag. 0.10E-02    1.5     0.02714386     -5419.4820609903  3.22E-02
   353 Broy./Diag. 0.10E-02    1.5     0.05055846     -5419.2986847178  1.83E-01
   354 Broy./Diag. 0.10E-02    1.5     0.01309212     -5418.8739012577  4.25E-01
   355 Broy./Diag. 0.10E-02    1.5     0.02321436     -5418.9465556676 -7.27E-02
   356 Broy./Diag. 0.10E-02    1.5     0.02101513     -5418.8548892068  9.17E-02
   357 Broy./Diag. 0.10E-02    1.5     0.02168056     -5418.9704285928 -1.16E-01
   358 Broy./Diag. 0.10E-02    1.5     0.04453194     -5419.0596709638 -8.92E-02
   359 Broy./Diag. 0.10E-02    1.5     0.04416271     -5419.1138285571 -5.42E-02
   360 Broy./Diag. 0.10E-02    1.5     0.01967334     -5419.1734094914 -5.96E-02
   361 Broy./Diag. 0.10E-02    1.5     0.01998903     -5419.1356382162  3.78E-02
