 DBCSR| CPU Multiplication driver                                           XSMM (U)
 DBCSR| Multrec recursion limit                                              512 (U)
 DBCSR| Multiplication stack size                                           1000 (D)
 DBCSR| Maximum elements for images                                    UNLIMITED (U)
 DBCSR| Multiplicative factor virtual images                                   1 (U)
 DBCSR| Use multiplication densification                                       T (D)
 DBCSR| Multiplication size stacks                                             3 (U)
 DBCSR| Use memory pool for CPU allocation                                     F (U)
 DBCSR| Number of 3D layers                                               SINGLE (U)
 DBCSR| Use MPI memory allocation                                              F (U)
 DBCSR| Use RMA algorithm                                                      F (U)
 DBCSR| Use Communication thread                                               T (U)
 DBCSR| Communication thread load                                             87 (D)
 DBCSR| MPI: My process id                                                     0
 DBCSR| MPI: Number of processes                                             128
 DBCSR| OMP: Current number of threads                                         1
 DBCSR| OMP: Max number of threads                                             1
 DBCSR| Split modifier for TAS multiplication algorithm                  1.0E+00 (U)


  **** **** ******  **  PROGRAM STARTED AT               2023-02-14 15:59:57.038
 ***** ** ***  *** **   PROGRAM STARTED ON                             nid006784
 **    ****   ******    PROGRAM STARTED BY                                cahart
 ***** **    ** ** **   PROGRAM PROCESS ID                                 86255
  **** **  *******  **  PROGRAM STARTED IN /mnt/lustre/a2fs-work2/work/e05/e05/c
                                           ahart/postdoc/masters/ni/archer2/slab
                                           /optimise/alpha-beta/scf_1e-4_mos-100
                                           0_temp-2000_spin-0.7-0.5_periodic-xyz
                                           /search/4.0E-01_1.0E-3

 CP2K| version string:                 CP2K version 2023.1 (Development Version)
 CP2K| source code revision number:                                  git:964cd58
 CP2K| cp2kflags: omp libint fftw3 libxc elpa parallel scalapack xsmm plumed2 mk
 CP2K|            l
 CP2K| is freely available from                            https://www.cp2k.org/
 CP2K| Program compiled at                          Mon 13 Feb 17:05:14 GMT 2023
 CP2K| Program compiled on                                                  ln01
 CP2K| Program compiled for                                              ARCHER2
 CP2K| Data directory path    /work/e05/e05/cahart/cp2k/cp2k-2023.1/cp2k-2023.1-
 CP2K| Input file name                                                  cp2k.inp

 GLOBAL| Force Environment number                                              1
 GLOBAL| Basis set file name                                        BASIS_MOLOPT
 GLOBAL| Potential file name                                      GTH_POTENTIALS
 GLOBAL| MM Potential file name                                     MM_POTENTIAL
 GLOBAL| Coordinate file name                                      __STD_INPUT__
 GLOBAL| Method name                                                        CP2K
 GLOBAL| Project name                                                    Ni_bulk
 GLOBAL| Run type                                                         ENERGY
 GLOBAL| FFT library                                                       FFTW3
 GLOBAL| Diagonalization library                                            ELPA
 GLOBAL| DGEMM library                                                      BLAS
 GLOBAL| Minimum number of eigenvectors for ELPA usage                        16
 GLOBAL| Orthonormality check for eigenvectors                          DISABLED
 GLOBAL| Matrix multiplication library                                 ScaLAPACK
 GLOBAL| All-to-all communication in single precision                          F
 GLOBAL| FFTs using library dependent lengths                                  F
 GLOBAL| Grid backend                                                       AUTO
 GLOBAL| Global print level                                               MEDIUM
 GLOBAL| MPI I/O enabled                                                       T
 GLOBAL| Total number of message passing processes                           128
 GLOBAL| Number of threads for this process                                    1
 GLOBAL| This output is from process                                           0
 GLOBAL| Stack size for threads created by OpenMP (OMP_STACKSIZE)        default
 GLOBAL| CPU model name                          AMD EPYC 7742 64-Core Processor
 GLOBAL| CPUID                                                              1002

 MEMORY| system memory details [Kb]
 MEMORY|                        rank 0           min           max       average
 MEMORY| MemTotal            263528088     263528088     263528088     263528088
 MEMORY| MemFree             239505868     239505868     239505868     239505868
 MEMORY| Buffers                 35068         35068         35068         35068
 MEMORY| Cached                 608152        608152        608152        608152
 MEMORY| Slab                  1457996       1457996       1457996       1457996
 MEMORY| SReclaimable           101056        101056        101056        101056
 MEMORY| MemLikelyFree       240250144     240250144     240250144     240250144


 *** Fundamental physical constants (SI units) ***

 *** Literature: B. J. Mohr and B. N. Taylor,
 ***             CODATA recommended values of the fundamental physical
 ***             constants: 2006, Web Version 5.1
 ***             http://physics.nist.gov/constants

 Speed of light in vacuum [m/s]                             2.99792458000000E+08
 Magnetic constant or permeability of vacuum [N/A**2]       1.25663706143592E-06
 Electric constant or permittivity of vacuum [F/m]          8.85418781762039E-12
 Planck constant (h) [J*s]                                  6.62606896000000E-34
 Planck constant (h-bar) [J*s]                              1.05457162825177E-34
 Elementary charge [C]                                      1.60217648700000E-19
 Electron mass [kg]                                         9.10938215000000E-31
 Electron g factor [ ]                                     -2.00231930436220E+00
 Proton mass [kg]                                           1.67262163700000E-27
 Fine-structure constant                                    7.29735253760000E-03
 Rydberg constant [1/m]                                     1.09737315685270E+07
 Avogadro constant [1/mol]                                  6.02214179000000E+23
 Boltzmann constant [J/K]                                   1.38065040000000E-23
 Atomic mass unit [kg]                                      1.66053878200000E-27
 Bohr radius [m]                                            5.29177208590000E-11

 *** Conversion factors ***

 [u] -> [a.u.]                                              1.82288848426455E+03
 [Angstrom] -> [Bohr] = [a.u.]                              1.88972613288564E+00
 [a.u.] = [Bohr] -> [Angstrom]                              5.29177208590000E-01
 [a.u.] -> [s]                                              2.41888432650478E-17
 [a.u.] -> [fs]                                             2.41888432650478E-02
 [a.u.] -> [J]                                              4.35974393937059E-18
 [a.u.] -> [N]                                              8.23872205491840E-08
 [a.u.] -> [K]                                              3.15774647902944E+05
 [a.u.] -> [kJ/mol]                                         2.62549961709828E+03
 [a.u.] -> [kcal/mol]                                       6.27509468713739E+02
 [a.u.] -> [Pa]                                             2.94210107994716E+13
 [a.u.] -> [bar]                                            2.94210107994716E+08
 [a.u.] -> [atm]                                            2.90362800883016E+08
 [a.u.] -> [eV]                                             2.72113838565563E+01
 [a.u.] -> [Hz]                                             6.57968392072181E+15
 [a.u.] -> [1/cm] (wave numbers)                            2.19474631370540E+05
 [a.u./Bohr**2] -> [1/cm]                                   5.14048714338585E+03
 

 CELL_TOP| Volume [angstrom^3]:                                       983.249569
 CELL_TOP| Vector a [angstrom     7.012     0.000     0.000   |a| =     7.011596
 CELL_TOP| Vector b [angstrom     0.000     7.012     0.000   |b| =     7.011596
 CELL_TOP| Vector c [angstrom     0.000     0.000    20.000   |c| =    20.000000
 CELL_TOP| Angle (b,c), alpha [degree]:                                90.000000
 CELL_TOP| Angle (a,c), beta  [degree]:                                90.000000
 CELL_TOP| Angle (a,b), gamma [degree]:                                90.000000
 CELL_TOP| Numerically orthorhombic:                                         YES
 CELL_TOP| Periodicity                                                       XYZ

 GENERATE|  Preliminary Number of Bonds generated:                             0
 GENERATE|  Achieved consistency in connectivity generation.

 CELL| Volume [angstrom^3]:                                           983.249569
 CELL| Vector a [angstrom]:       7.012     0.000     0.000   |a| =     7.011596
 CELL| Vector b [angstrom]:       0.000     7.012     0.000   |b| =     7.011596
 CELL| Vector c [angstrom]:       0.000     0.000    20.000   |c| =    20.000000
 CELL| Angle (b,c), alpha [degree]:                                    90.000000
 CELL| Angle (a,c), beta  [degree]:                                    90.000000
 CELL| Angle (a,b), gamma [degree]:                                    90.000000
 CELL| Numerically orthorhombic:                                             YES
 CELL| Periodicity                                                           XYZ

 CELL_REF| Volume [angstrom^3]:                                       983.249569
 CELL_REF| Vector a [angstrom     7.012     0.000     0.000   |a| =     7.011596
 CELL_REF| Vector b [angstrom     0.000     7.012     0.000   |b| =     7.011596
 CELL_REF| Vector c [angstrom     0.000     0.000    20.000   |c| =    20.000000
 CELL_REF| Angle (b,c), alpha [degree]:                                90.000000
 CELL_REF| Angle (a,c), beta  [degree]:                                90.000000
 CELL_REF| Angle (a,b), gamma [degree]:                                90.000000
 CELL_REF| Numerically orthorhombic:                                         YES
 CELL_REF| Periodicity                                                       XYZ

 *** WARNING in cryssym.F:165 :: Symmetry library SPGLIB not available ***


 *******************************************************************************
                                    Kpoints
 *******************************************************************************
 BRILLOUIN| K-point scheme                                        Monkhorst-Pack
 BRILLOUIN| K-Point grid                                             4    4    1
 BRILLOUIN| Accuracy in Symmetry determination                      0.100000E-05
 BRILLOUIN| K-Point point group symmetrization                               OFF
 BRILLOUIN| Wavefunction type                                            COMPLEX
 BRILLOUIN| List of Kpoints [2 Pi/Bohr]                                        8
 BRILLOUIN| Number           Weight            X              Y              Z
 BRILLOUIN|     1           0.12500       -0.37500       -0.37500        0.00000
 BRILLOUIN|     2           0.12500       -0.37500       -0.12500        0.00000
 BRILLOUIN|     3           0.12500       -0.37500        0.12500        0.00000
 BRILLOUIN|     4           0.12500       -0.37500        0.37500        0.00000
 BRILLOUIN|     5           0.12500       -0.12500       -0.37500        0.00000
 BRILLOUIN|     6           0.12500       -0.12500       -0.12500        0.00000
 BRILLOUIN|     7           0.12500       -0.12500        0.12500        0.00000
 BRILLOUIN|     8           0.12500       -0.12500        0.37500        0.00000
 *******************************************************************************

 *******************************************************************************
 *******************************************************************************
 **                                                                           **
 **     #####                         ##              ##                      **
 **    ##   ##            ##          ##              ##                      **
 **   ##     ##                       ##            ######                    **
 **   ##     ##  ##   ##  ##   #####  ##  ##   ####   ##    #####    #####    **
 **   ##     ##  ##   ##  ##  ##      ## ##   ##      ##   ##   ##  ##   ##   **
 **   ##  ## ##  ##   ##  ##  ##      ####     ###    ##   ######   ######    **
 **    ##  ###   ##   ##  ##  ##      ## ##      ##   ##   ##       ##        **
 **     #######   #####   ##   #####  ##  ##  ####    ##    #####   ##        **
 **           ##                                                    ##        **
 **                                                                           **
 **                                                ... make the atoms dance   **
 **                                                                           **
 **            Copyright (C) by CP2K developers group (2000-2023)             **
 **                      J. Chem. Phys. 152, 194103 (2020)                    **
 **                                                                           **
 *******************************************************************************

 *** WARNING in qs_environment.F:1456 :: Number of electrons will be ***
 *** overwritten by NELEC_ALPHA and NELEC_BETA, multiplicity will be ***
 *** ignored.                                                        ***

 Number of electrons should be                                               576
 Sum of NELEC_ALPHA and NELEC_BETA is                                    576.000

 *** WARNING in qs_environment.F:1488 :: NELEC_ALPHA is not an integer, ***
 *** many features will not be supported.                               ***


 *** WARNING in qs_environment.F:1500 :: NELEC_BETA is not an integer, ***
 *** many features will not be supported.                              ***


 *** WARNING in qs_environment.F:1532 :: More ADDED_MOs requested for beta ***
 *** spin than available.                                                  ***


 *** WARNING in qs_environment.F:1548 :: More added MOs requested than     ***
 *** available. The full set of unoccupied MOs will be used. Use           ***
 *** 'ADDED_MOS -1' to always use all available MOs and to get rid of this ***
 *** warning.                                                              ***


 DFT| Spin unrestricted (spin-polarized) Kohn-Sham calculation               UKS
 DFT| Multiplicity                                                             1
 DFT| Number of spin states                                                    2
 DFT| Charge                                                                   0
 DFT| Self-interaction correction (SIC)                                       NO
 DFT| Cutoffs: density                                              1.000000E-10
 DFT|          gradient                                             1.000000E-10
 DFT|          tau                                                  1.000000E-10
 DFT|          cutoff_smoothing_range                               0.000000E+00
 DFT| XC density smoothing                                                  NONE
 DFT| XC derivatives                                                          PW

 FUNCTIONAL| PBE:
 FUNCTIONAL| J.P.Perdew, K.Burke, M.Ernzerhof, Phys. Rev. Letter, vol. 77, n 18,
 FUNCTIONAL|  pp. 3865-3868, (1996){spin polarized}                             

 vdW POTENTIAL|                                                   Pair Potential
 vdW POTENTIAL|          DFT-D3 (Version 3.1)
 vdW POTENTIAL|          Potential Form: S. Grimme et al, JCP 132: 154104 (2010)
 vdW POTENTIAL|          Zero Damping
 vdW POTENTIAL|          Cutoff Radius [Bohr]:                             20.00
 vdW POTENTIAL|          s6 Scaling Factor:                               1.0000
 vdW POTENTIAL|          sr6 Scaling Factor:                              1.2170
 vdW POTENTIAL|          s8 Scaling Factor:                               0.7220
 vdW POTENTIAL|          Cutoff for CN calculation:                   0.1000E-05

 QS| Method:                                                                 GPW
 QS| Density plane wave grid type                        NON-SPHERICAL FULLSPACE
 QS| Number of grid levels:                                                    5
 QS| Density cutoff [a.u.]:                                                300.0
 QS| Multi grid cutoff [a.u.]: 1) grid level                               300.0
 QS|                           2) grid level                               100.0
 QS|                           3) grid level                                33.3
 QS|                           4) grid level                                11.1
 QS|                           5) grid level                                 3.7
 QS| Grid level progression factor:                                          3.0
 QS| Relative density cutoff [a.u.]:                                        30.0
 QS| Interaction thresholds: eps_pgf_orb:                                1.0E-06
 QS|                         eps_filter_matrix:                          0.0E+00
 QS|                         eps_core_charge:                            1.0E-14
 QS|                         eps_rho_gspace:                             1.0E-12
 QS|                         eps_rho_rspace:                             1.0E-12
 QS|                         eps_gvg_rspace:                             1.0E-06
 QS|                         eps_ppl:                                    1.0E-02
 QS|                         eps_ppnl:                                   1.0E-08


 ATOMIC KIND INFORMATION

  1. Atomic kind: Ni_i                                  Number of atoms:      16

     Orbital Basis Set                                        DZVP-MOLOPT-SR-GTH

       Number of orbital shell sets:                                           1
       Number of orbital shells:                                               8
       Number of primitive Cartesian functions:                                6
       Number of Cartesian basis functions:                                   31
       Number of spherical basis functions:                                   26
       Norm type:                                                              2

       Normalised Cartesian orbitals:

                        Set   Shell   Orbital            Exponent    Coefficient

                          1       1    2s               10.077428      -0.684558
                                                         5.847736      -0.844524
                                                         2.494033       1.088856
                                                         0.988355       0.395503
                                                         0.344978       0.010224
                                                         0.099466      -0.003250

                          1       2    3s               10.077428       0.096747
                                                         5.847736       0.162504
                                                         2.494033      -0.297192
                                                         0.988355      -0.319752
                                                         0.344978       0.088318
                                                         0.099466       0.118587

                          1       3    4s               10.077428       0.036437
                                                         5.847736      -0.381480
                                                         2.494033       0.003759
                                                         0.988355      -1.048256
                                                         0.344978       0.855825
                                                         0.099466      -0.176350

                          1       4    3px              10.077428      -3.133913
                                                         5.847736       3.027656
                                                         2.494033       2.353227
                                                         0.988355       0.554184
                                                         0.344978       0.019462
                                                         0.099466      -0.000291
                          1       4    3py              10.077428      -3.133913
                                                         5.847736       3.027656
                                                         2.494033       2.353227
                                                         0.988355       0.554184
                                                         0.344978       0.019462
                                                         0.099466      -0.000291
                          1       4    3pz              10.077428      -3.133913
                                                         5.847736       3.027656
                                                         2.494033       2.353227
                                                         0.988355       0.554184
                                                         0.344978       0.019462
                                                         0.099466      -0.000291

                          1       5    4px              10.077428      -0.112729
                                                         5.847736      -0.114008
                                                         2.494033      -0.347303
                                                         0.988355      -0.110323
                                                         0.344978       0.154096
                                                         0.099466       0.058386
                          1       5    4py              10.077428      -0.112729
                                                         5.847736      -0.114008
                                                         2.494033      -0.347303
                                                         0.988355      -0.110323
                                                         0.344978       0.154096
                                                         0.099466       0.058386
                          1       5    4pz              10.077428      -0.112729
                                                         5.847736      -0.114008
                                                         2.494033      -0.347303
                                                         0.988355      -0.110323
                                                         0.344978       0.154096
                                                         0.099466       0.058386

                          1       6    4dx2             10.077428       8.232726
                                                         5.847736       9.105758
                                                         2.494033       2.849835
                                                         0.988355       0.554319
                                                         0.344978       0.067245
                                                         0.099466       0.001940
                          1       6    4dxy             10.077428      14.259500
                                                         5.847736      15.771636
                                                         2.494033       4.936060
                                                         0.988355       0.960109
                                                         0.344978       0.116472
                                                         0.099466       0.003360
                          1       6    4dxz             10.077428      14.259500
                                                         5.847736      15.771636
                                                         2.494033       4.936060
                                                         0.988355       0.960109
                                                         0.344978       0.116472
                                                         0.099466       0.003360
                          1       6    4dy2             10.077428       8.232726
                                                         5.847736       9.105758
                                                         2.494033       2.849835
                                                         0.988355       0.554319
                                                         0.344978       0.067245
                                                         0.099466       0.001940
                          1       6    4dyz             10.077428      14.259500
                                                         5.847736      15.771636
                                                         2.494033       4.936060
                                                         0.988355       0.960109
                                                         0.344978       0.116472
                                                         0.099466       0.003360
                          1       6    4dz2             10.077428       8.232726
                                                         5.847736       9.105758
                                                         2.494033       2.849835
                                                         0.988355       0.554319
                                                         0.344978       0.067245
                                                         0.099466       0.001940

                          1       7    5dx2             10.077428      -2.715373
                                                         5.847736      -4.020640
                                                         2.494033      -1.397569
                                                         0.988355      -0.076143
                                                         0.344978       0.033435
                                                         0.099466       0.026032
                          1       7    5dxy             10.077428      -4.703164
                                                         5.847736      -6.963952
                                                         2.494033      -2.420661
                                                         0.988355      -0.131883
                                                         0.344978       0.057911
                                                         0.099466       0.045088
                          1       7    5dxz             10.077428      -4.703164
                                                         5.847736      -6.963952
                                                         2.494033      -2.420661
                                                         0.988355      -0.131883
                                                         0.344978       0.057911
                                                         0.099466       0.045088
                          1       7    5dy2             10.077428      -2.715373
                                                         5.847736      -4.020640
                                                         2.494033      -1.397569
                                                         0.988355      -0.076143
                                                         0.344978       0.033435
                                                         0.099466       0.026032
                          1       7    5dyz             10.077428      -4.703164
                                                         5.847736      -6.963952
                                                         2.494033      -2.420661
                                                         0.988355      -0.131883
                                                         0.344978       0.057911
                                                         0.099466       0.045088
                          1       7    5dz2             10.077428      -2.715373
                                                         5.847736      -4.020640
                                                         2.494033      -1.397569
                                                         0.988355      -0.076143
                                                         0.344978       0.033435
                                                         0.099466       0.026032

                          1       8    5fx3             10.077428      -0.467694
                                                         5.847736       0.618100
                                                         2.494033       0.066069
                                                         0.988355       0.262898
                                                         0.344978       0.004720
                                                         0.099466       0.007748
                          1       8    5fx2y            10.077428      -1.045795
                                                         5.847736       1.382114
                                                         2.494033       0.147734
                                                         0.988355       0.587859
                                                         0.344978       0.010555
                                                         0.099466       0.017325
                          1       8    5fx2z            10.077428      -1.045795
                                                         5.847736       1.382114
                                                         2.494033       0.147734
                                                         0.988355       0.587859
                                                         0.344978       0.010555
                                                         0.099466       0.017325
                          1       8    5fxy2            10.077428      -1.045795
                                                         5.847736       1.382114
                                                         2.494033       0.147734
                                                         0.988355       0.587859
                                                         0.344978       0.010555
                                                         0.099466       0.017325
                          1       8    5fxyz            10.077428      -1.811371
                                                         5.847736       2.393892
                                                         2.494033       0.255883
                                                         0.988355       1.018201
                                                         0.344978       0.018282
                                                         0.099466       0.030008
                          1       8    5fxz2            10.077428      -1.045795
                                                         5.847736       1.382114
                                                         2.494033       0.147734
                                                         0.988355       0.587859
                                                         0.344978       0.010555
                                                         0.099466       0.017325
                          1       8    5fy3             10.077428      -0.467694
                                                         5.847736       0.618100
                                                         2.494033       0.066069
                                                         0.988355       0.262898
                                                         0.344978       0.004720
                                                         0.099466       0.007748
                          1       8    5fy2z            10.077428      -1.045795
                                                         5.847736       1.382114
                                                         2.494033       0.147734
                                                         0.988355       0.587859
                                                         0.344978       0.010555
                                                         0.099466       0.017325
                          1       8    5fyz2            10.077428      -1.045795
                                                         5.847736       1.382114
                                                         2.494033       0.147734
                                                         0.988355       0.587859
                                                         0.344978       0.010555
                                                         0.099466       0.017325
                          1       8    5fz3             10.077428      -0.467694
                                                         5.847736       0.618100
                                                         2.494033       0.066069
                                                         0.988355       0.262898
                                                         0.344978       0.004720
                                                         0.099466       0.007748

       Atomic covalent radius [Angstrom]:                                  1.150

       Atomic van der Waals radius [Angstrom]:                             1.630

     GTH Potential information for                                   GTH-PBE-q18

       Description:                       Goedecker-Teter-Hutter pseudopotential
                                           Goedecker et al., PRB 54, 1703 (1996)
                                          Hartwigsen et al., PRB 58, 3641 (1998)
                                                      Krack, TCA 114, 145 (2005)

       Gaussian exponent of the core charge distribution:               4.081633
       Electronic configuration (s p d ...):                           4   6   8

       Parameters of the local part of the GTH pseudopotential:

                          rloc        C1          C2          C3          C4
                        0.350000    2.102166    0.648484

       Parameters of the non-local part of the GTH pseudopotential:

                   l      r(l)      h(i,j,l)

                   0    0.261295    0.622658    9.970227
                                    9.970227  -12.871507
                   1    0.224253  -11.142708   12.429566
                                   12.429566  -14.706861
                   2    0.215348  -12.628146

  2. Atomic kind: Ni_b                                  Number of atoms:      16

     Orbital Basis Set                                        DZVP-MOLOPT-SR-GTH

       Number of orbital shell sets:                                           1
       Number of orbital shells:                                               8
       Number of primitive Cartesian functions:                                6
       Number of Cartesian basis functions:                                   31
       Number of spherical basis functions:                                   26
       Norm type:                                                              2

       Normalised Cartesian orbitals:

                        Set   Shell   Orbital            Exponent    Coefficient

                          1       1    2s               10.077428      -0.684558
                                                         5.847736      -0.844524
                                                         2.494033       1.088856
                                                         0.988355       0.395503
                                                         0.344978       0.010224
                                                         0.099466      -0.003250

                          1       2    3s               10.077428       0.096747
                                                         5.847736       0.162504
                                                         2.494033      -0.297192
                                                         0.988355      -0.319752
                                                         0.344978       0.088318
                                                         0.099466       0.118587

                          1       3    4s               10.077428       0.036437
                                                         5.847736      -0.381480
                                                         2.494033       0.003759
                                                         0.988355      -1.048256
                                                         0.344978       0.855825
                                                         0.099466      -0.176350

                          1       4    3px              10.077428      -3.133913
                                                         5.847736       3.027656
                                                         2.494033       2.353227
                                                         0.988355       0.554184
                                                         0.344978       0.019462
                                                         0.099466      -0.000291
                          1       4    3py              10.077428      -3.133913
                                                         5.847736       3.027656
                                                         2.494033       2.353227
                                                         0.988355       0.554184
                                                         0.344978       0.019462
                                                         0.099466      -0.000291
                          1       4    3pz              10.077428      -3.133913
                                                         5.847736       3.027656
                                                         2.494033       2.353227
                                                         0.988355       0.554184
                                                         0.344978       0.019462
                                                         0.099466      -0.000291

                          1       5    4px              10.077428      -0.112729
                                                         5.847736      -0.114008
                                                         2.494033      -0.347303
                                                         0.988355      -0.110323
                                                         0.344978       0.154096
                                                         0.099466       0.058386
                          1       5    4py              10.077428      -0.112729
                                                         5.847736      -0.114008
                                                         2.494033      -0.347303
                                                         0.988355      -0.110323
                                                         0.344978       0.154096
                                                         0.099466       0.058386
                          1       5    4pz              10.077428      -0.112729
                                                         5.847736      -0.114008
                                                         2.494033      -0.347303
                                                         0.988355      -0.110323
                                                         0.344978       0.154096
                                                         0.099466       0.058386

                          1       6    4dx2             10.077428       8.232726
                                                         5.847736       9.105758
                                                         2.494033       2.849835
                                                         0.988355       0.554319
                                                         0.344978       0.067245
                                                         0.099466       0.001940
                          1       6    4dxy             10.077428      14.259500
                                                         5.847736      15.771636
                                                         2.494033       4.936060
                                                         0.988355       0.960109
                                                         0.344978       0.116472
                                                         0.099466       0.003360
                          1       6    4dxz             10.077428      14.259500
                                                         5.847736      15.771636
                                                         2.494033       4.936060
                                                         0.988355       0.960109
                                                         0.344978       0.116472
                                                         0.099466       0.003360
                          1       6    4dy2             10.077428       8.232726
                                                         5.847736       9.105758
                                                         2.494033       2.849835
                                                         0.988355       0.554319
                                                         0.344978       0.067245
                                                         0.099466       0.001940
                          1       6    4dyz             10.077428      14.259500
                                                         5.847736      15.771636
                                                         2.494033       4.936060
                                                         0.988355       0.960109
                                                         0.344978       0.116472
                                                         0.099466       0.003360
                          1       6    4dz2             10.077428       8.232726
                                                         5.847736       9.105758
                                                         2.494033       2.849835
                                                         0.988355       0.554319
                                                         0.344978       0.067245
                                                         0.099466       0.001940

                          1       7    5dx2             10.077428      -2.715373
                                                         5.847736      -4.020640
                                                         2.494033      -1.397569
                                                         0.988355      -0.076143
                                                         0.344978       0.033435
                                                         0.099466       0.026032
                          1       7    5dxy             10.077428      -4.703164
                                                         5.847736      -6.963952
                                                         2.494033      -2.420661
                                                         0.988355      -0.131883
                                                         0.344978       0.057911
                                                         0.099466       0.045088
                          1       7    5dxz             10.077428      -4.703164
                                                         5.847736      -6.963952
                                                         2.494033      -2.420661
                                                         0.988355      -0.131883
                                                         0.344978       0.057911
                                                         0.099466       0.045088
                          1       7    5dy2             10.077428      -2.715373
                                                         5.847736      -4.020640
                                                         2.494033      -1.397569
                                                         0.988355      -0.076143
                                                         0.344978       0.033435
                                                         0.099466       0.026032
                          1       7    5dyz             10.077428      -4.703164
                                                         5.847736      -6.963952
                                                         2.494033      -2.420661
                                                         0.988355      -0.131883
                                                         0.344978       0.057911
                                                         0.099466       0.045088
                          1       7    5dz2             10.077428      -2.715373
                                                         5.847736      -4.020640
                                                         2.494033      -1.397569
                                                         0.988355      -0.076143
                                                         0.344978       0.033435
                                                         0.099466       0.026032

                          1       8    5fx3             10.077428      -0.467694
                                                         5.847736       0.618100
                                                         2.494033       0.066069
                                                         0.988355       0.262898
                                                         0.344978       0.004720
                                                         0.099466       0.007748
                          1       8    5fx2y            10.077428      -1.045795
                                                         5.847736       1.382114
                                                         2.494033       0.147734
                                                         0.988355       0.587859
                                                         0.344978       0.010555
                                                         0.099466       0.017325
                          1       8    5fx2z            10.077428      -1.045795
                                                         5.847736       1.382114
                                                         2.494033       0.147734
                                                         0.988355       0.587859
                                                         0.344978       0.010555
                                                         0.099466       0.017325
                          1       8    5fxy2            10.077428      -1.045795
                                                         5.847736       1.382114
                                                         2.494033       0.147734
                                                         0.988355       0.587859
                                                         0.344978       0.010555
                                                         0.099466       0.017325
                          1       8    5fxyz            10.077428      -1.811371
                                                         5.847736       2.393892
                                                         2.494033       0.255883
                                                         0.988355       1.018201
                                                         0.344978       0.018282
                                                         0.099466       0.030008
                          1       8    5fxz2            10.077428      -1.045795
                                                         5.847736       1.382114
                                                         2.494033       0.147734
                                                         0.988355       0.587859
                                                         0.344978       0.010555
                                                         0.099466       0.017325
                          1       8    5fy3             10.077428      -0.467694
                                                         5.847736       0.618100
                                                         2.494033       0.066069
                                                         0.988355       0.262898
                                                         0.344978       0.004720
                                                         0.099466       0.007748
                          1       8    5fy2z            10.077428      -1.045795
                                                         5.847736       1.382114
                                                         2.494033       0.147734
                                                         0.988355       0.587859
                                                         0.344978       0.010555
                                                         0.099466       0.017325
                          1       8    5fyz2            10.077428      -1.045795
                                                         5.847736       1.382114
                                                         2.494033       0.147734
                                                         0.988355       0.587859
                                                         0.344978       0.010555
                                                         0.099466       0.017325
                          1       8    5fz3             10.077428      -0.467694
                                                         5.847736       0.618100
                                                         2.494033       0.066069
                                                         0.988355       0.262898
                                                         0.344978       0.004720
                                                         0.099466       0.007748

       Atomic covalent radius [Angstrom]:                                  1.150

       Atomic van der Waals radius [Angstrom]:                             1.630

     GTH Potential information for                                   GTH-PBE-q18

       Description:                       Goedecker-Teter-Hutter pseudopotential
                                           Goedecker et al., PRB 54, 1703 (1996)
                                          Hartwigsen et al., PRB 58, 3641 (1998)
                                                      Krack, TCA 114, 145 (2005)

       Gaussian exponent of the core charge distribution:               4.081633
       Electronic configuration (s p d ...):                           4   6   8

       Parameters of the local part of the GTH pseudopotential:

                          rloc        C1          C2          C3          C4
                        0.350000    2.102166    0.648484

       Parameters of the non-local part of the GTH pseudopotential:

                   l      r(l)      h(i,j,l)

                   0    0.261295    0.622658    9.970227
                                    9.970227  -12.871507
                   1    0.224253  -11.142708   12.429566
                                   12.429566  -14.706861
                   2    0.215348  -12.628146


 MOLECULE KIND INFORMATION


 All atoms are their own molecule, skipping detailed information


 TOTAL NUMBERS AND MAXIMUM NUMBERS

  Total number of            - Atomic kinds:                                   2
                             - Atoms:                                         32
                             - Shell sets:                                    32
                             - Shells:                                       256
                             - Primitive Cartesian functions:                192
                             - Cartesian basis functions:                    992
                             - Spherical basis functions:                    832

  Maximum angular momentum of- Orbital basis functions:                        3
                             - Local part of the GTH pseudopotential:          2
                             - Non-local part of the GTH pseudopotential:      3


 MODULE QUICKSTEP: ATOMIC COORDINATES IN ANGSTROM

   Atom Kind Element         X             Y             Z       Z(eff)     Mass
      1    1 Ni   28      0.876298      0.876298      7.370500  18.0000  58.6934
      2    1 Ni   28      0.876298      4.382298      7.370500  18.0000  58.6934
      3    1 Ni   28      2.629298      2.629298      7.370500  18.0000  58.6934
      4    1 Ni   28      2.629298      6.135298      7.370500  18.0000  58.6934
      5    1 Ni   28      4.382298      0.876298      7.370500  18.0000  58.6934
      6    1 Ni   28      4.382298      4.382298      7.370500  18.0000  58.6934
      7    1 Ni   28      6.135298      2.629298      7.370500  18.0000  58.6934
      8    1 Ni   28      6.135298      6.135298      7.370500  18.0000  58.6934
      9    2 Ni   28      0.876298      2.629298      9.123500  18.0000  58.6934
     10    2 Ni   28      0.876298      6.135298      9.123500  18.0000  58.6934
     11    2 Ni   28      2.629298      0.876298      9.123500  18.0000  58.6934
     12    2 Ni   28      2.629298      4.382298      9.123500  18.0000  58.6934
     13    2 Ni   28      4.382298      2.629298      9.123500  18.0000  58.6934
     14    2 Ni   28      4.382298      6.135298      9.123500  18.0000  58.6934
     15    2 Ni   28      6.135298      0.876298      9.123500  18.0000  58.6934
     16    2 Ni   28      6.135298      4.382298      9.123500  18.0000  58.6934
     17    2 Ni   28      0.876298      0.876298     10.876500  18.0000  58.6934
     18    2 Ni   28      0.876298      4.382298     10.876500  18.0000  58.6934
     19    2 Ni   28      2.629298      2.629298     10.876500  18.0000  58.6934
     20    2 Ni   28      2.629298      6.135298     10.876500  18.0000  58.6934
     21    2 Ni   28      4.382298      0.876298     10.876500  18.0000  58.6934
     22    2 Ni   28      4.382298      4.382298     10.876500  18.0000  58.6934
     23    2 Ni   28      6.135298      2.629298     10.876500  18.0000  58.6934
     24    2 Ni   28      6.135298      6.135298     10.876500  18.0000  58.6934
     25    1 Ni   28      0.876298      2.629298     12.629500  18.0000  58.6934
     26    1 Ni   28      0.876298      6.135298     12.629500  18.0000  58.6934
     27    1 Ni   28      2.629298      0.876298     12.629500  18.0000  58.6934
     28    1 Ni   28      2.629298      4.382298     12.629500  18.0000  58.6934
     29    1 Ni   28      4.382298      2.629298     12.629500  18.0000  58.6934
     30    1 Ni   28      4.382298      6.135298     12.629500  18.0000  58.6934
     31    1 Ni   28      6.135298      0.876298     12.629500  18.0000  58.6934
     32    1 Ni   28      6.135298      4.382298     12.629500  18.0000  58.6934



 SCF PARAMETERS         Density guess:                                    ATOMIC
                        --------------------------------------------------------
                        max_scf:                                             500
                        max_scf_history:                                       0
                        max_diis:                                              4
                        --------------------------------------------------------
                        eps_scf:                                        1.00E-04
                        eps_scf_history:                                0.00E+00
                        eps_diis:                                       1.00E-01
                        eps_eigval:                                     1.00E-05
                        --------------------------------------------------------
                        level_shift [a.u.]:                             0.000000
                        added MOs                                       534  553
                        --------------------------------------------------------
                        Mixing method:                            BROYDEN_MIXING
                                                charge density mixing in g-space
                        --------------------------------------------------------
                        Smear method:                                FERMI_DIRAC
                        Electronic temperature [K]:                       2000.0
                        Electronic temperature [a.u.]:                  6.33E-03
                        Accuracy threshold:                             1.00E-10
                        --------------------------------------------------------
                        No outer SCF

 PW_GRID| Information for grid number                                          1
 PW_GRID| Grid distributed over                                   128 processors
 PW_GRID| Real space group dimensions                                     8   16
 PW_GRID| the grid is blocked:                                               YES
 PW_GRID| Cutoff [a.u.]                                                    300.0
 PW_GRID| spherical cutoff:                                                   NO
 PW_GRID|   Bounds   1            -54      53                Points:         108
 PW_GRID|   Bounds   2            -54      53                Points:         108
 PW_GRID|   Bounds   3           -150     149                Points:         300
 PW_GRID| Volume element (a.u.^3)  0.1896E-02     Volume (a.u.^3)      6635.2971
 PW_GRID| Grid span                                                    FULLSPACE
 PW_GRID|   Distribution                         Average         Max         Min
 PW_GRID|   G-Vectors                            27337.5       28728       25272
 PW_GRID|   G-Rays                                 253.1         266         234
 PW_GRID|   Real Space Points                    27337.5       28728       25272

 PW_GRID| Information for grid number                                          2
 PW_GRID| Number of the reference grid                                         1
 PW_GRID| Grid distributed over                                   128 processors
 PW_GRID| Real space group dimensions                                     8   16
 PW_GRID| the grid is blocked:                                                NO
 PW_GRID| Cutoff [a.u.]                                                    100.0
 PW_GRID| spherical cutoff:                                                   NO
 PW_GRID|   Bounds   1            -30      29                Points:          60
 PW_GRID|   Bounds   2            -30      29                Points:          60
 PW_GRID|   Bounds   3            -90      89                Points:         180
 PW_GRID| Volume element (a.u.^3)  0.1024E-01     Volume (a.u.^3)      6635.2971
 PW_GRID| Grid span                                                    FULLSPACE
 PW_GRID|   Distribution                         Average         Max         Min
 PW_GRID|   G-Vectors                             5062.5       15960           0
 PW_GRID|   G-Rays                                  84.4         266           0
 PW_GRID|   Real Space Points                     5062.5        5760        3780

 PW_GRID| Information for grid number                                          3
 PW_GRID| Number of the reference grid                                         1
 PW_GRID| Grid distributed over                                   128 processors
 PW_GRID| Real space group dimensions                                     8   16
 PW_GRID| the grid is blocked:                                                NO
 PW_GRID| Cutoff [a.u.]                                                     33.3
 PW_GRID| spherical cutoff:                                                   NO
 PW_GRID|   Bounds   1            -18      17                Points:          36
 PW_GRID|   Bounds   2            -18      17                Points:          36
 PW_GRID|   Bounds   3            -50      49                Points:         100
 PW_GRID| Volume element (a.u.^3)  0.5120E-01     Volume (a.u.^3)      6635.2971
 PW_GRID| Grid span                                                    FULLSPACE
 PW_GRID|   Distribution                         Average         Max         Min
 PW_GRID|   G-Vectors                             1012.5        9576           0
 PW_GRID|   G-Rays                                  28.1         266           0
 PW_GRID|   Real Space Points                     1012.5        1500         800

 PW_GRID| Information for grid number                                          4
 PW_GRID| Number of the reference grid                                         1
 PW_GRID| Grid distributed over                                   128 processors
 PW_GRID| Real space group dimensions                                     8   16
 PW_GRID| the grid is blocked:                                                NO
 PW_GRID| Cutoff [a.u.]                                                     11.1
 PW_GRID| spherical cutoff:                                                   NO
 PW_GRID|   Bounds   1            -10       9                Points:          20
 PW_GRID|   Bounds   2            -10       9                Points:          20
 PW_GRID|   Bounds   3            -30      29                Points:          60
 PW_GRID| Volume element (a.u.^3)  0.2765         Volume (a.u.^3)      6635.2971
 PW_GRID| Grid span                                                    FULLSPACE
 PW_GRID|   Distribution                         Average         Max         Min
 PW_GRID|   G-Vectors                              187.5        3800           0
 PW_GRID|   G-Rays                                   9.4         190           0
 PW_GRID|   Real Space Points                      187.5         360         120

 PW_GRID| Information for grid number                                          5
 PW_GRID| Number of the reference grid                                         1
 PW_GRID| Grid distributed over                                   128 processors
 PW_GRID| Real space group dimensions                                     8   16
 PW_GRID| the grid is blocked:                                                NO
 PW_GRID| Cutoff [a.u.]                                                      3.7
 PW_GRID| spherical cutoff:                                                   NO
 PW_GRID|   Bounds   1             -6       5                Points:          12
 PW_GRID|   Bounds   2             -6       5                Points:          12
 PW_GRID|   Bounds   3            -18      17                Points:          36
 PW_GRID| Volume element (a.u.^3)   1.280         Volume (a.u.^3)      6635.2971
 PW_GRID| Grid span                                                    FULLSPACE
 PW_GRID|   Distribution                         Average         Max         Min
 PW_GRID|   G-Vectors                               40.5        1296           0
 PW_GRID|   G-Rays                                   3.4         108           0
 PW_GRID|   Real Space Points                       40.5          72           0

 POISSON| Solver                                                        PERIODIC
 POISSON| Periodicity                                                        XYZ

 RS_GRID| Information for grid number                                          1
 RS_GRID|   Bounds   1            -54      53                Points:         108
 RS_GRID|   Bounds   2            -54      53                Points:         108
 RS_GRID|   Bounds   3           -150     149                Points:         300
 RS_GRID| Real space distribution over                                  8 groups
 RS_GRID| Real space distribution along direction                              2
 RS_GRID| Border size                                                         28
 RS_GRID| Real space distribution over                                 16 groups
 RS_GRID| Real space distribution along direction                              3
 RS_GRID| Border size                                                         28
 RS_GRID|   Distribution                         Average         Max         Min
 RS_GRID|   Planes                                  69.5          70          69
 RS_GRID|   Distribution                         Average         Max         Min
 RS_GRID|   Planes                                  74.8          75          74

 RS_GRID| Information for grid number                                          2
 RS_GRID|   Bounds   1            -30      29                Points:          60
 RS_GRID|   Bounds   2            -30      29                Points:          60
 RS_GRID|   Bounds   3            -90      89                Points:         180
 RS_GRID| Real space fully replicated
 RS_GRID| Group size                                                           1

 RS_GRID| Information for grid number                                          3
 RS_GRID|   Bounds   1            -18      17                Points:          36
 RS_GRID|   Bounds   2            -18      17                Points:          36
 RS_GRID|   Bounds   3            -50      49                Points:         100
 RS_GRID| Real space fully replicated
 RS_GRID| Group size                                                           1

 RS_GRID| Information for grid number                                          4
 RS_GRID|   Bounds   1            -10       9                Points:          20
 RS_GRID|   Bounds   2            -10       9                Points:          20
 RS_GRID|   Bounds   3            -30      29                Points:          60
 RS_GRID| Real space fully replicated
 RS_GRID| Group size                                                           1

 RS_GRID| Information for grid number                                          5
 RS_GRID|   Bounds   1             -6       5                Points:          12
 RS_GRID|   Bounds   2             -6       5                Points:          12
 RS_GRID|   Bounds   3            -18      17                Points:          36
 RS_GRID| Real space fully replicated
 RS_GRID| Group size                                                           1

 Spin 1

 Number of electrons:                                                        297.600
 Number of occupied orbitals:                                                298
 Number of molecular orbitals:                                               832

 Spin 2

 Number of electrons:                                                        278.400
 Number of occupied orbitals:                                                279
 Number of molecular orbitals:                                               832

 Number of orbital functions:                                                832
 Number of independent orbital functions:                                    832

 Extrapolation method: initial_guess

 Atomic guess: The first density matrix is obtained in terms of atomic orbitals
               and electronic configurations assigned to each atomic kind

 Guess for atomic kind: Ni_i

 Electronic structure
    Total number of core electrons                                         10.00
    Total number of valence electrons                                      18.00
    Total number of electrons                                              28.00
    Multiplicity                                                         doublet
    Alpha Electrons
    S   [  1.00  1.00] 1.00  1.00
    P   [  3.00] 3.00
    D      4.35
    Beta Electrons
    S   [  1.00  1.00] 1.00  1.00
    P   [  3.00] 3.00
    D      3.65


 *******************************************************************************
                  Iteration          Convergence                     Energy [au]
 *******************************************************************************
                          1         1.51729                    -167.067424631347
                          2         15.3902                    -156.642654318634
                          3         2.33433                    -168.319355313541
                          4        0.206730                    -168.609905008081
                          5        0.814175E-01                -168.612873080494
                          6        0.173318E-01                -168.613470181066
                          7        0.290432E-02                -168.613543571401
                          8        0.311825E-02                -168.613543401474
                          9        0.179670E-03                -168.613544404477
                         10        0.169386E-02                -168.613544207811
                         11        0.473341E-03                -168.613544360253
                         12        0.165417E-03                -168.613544400419
                         13        0.162622E-03                -168.613544401489
                         14        0.158325E-03                -168.613544403900
                         15        0.177007E-03                -168.613544402509
                         16        0.138916E-03                -168.613544404900
                         17        0.934549E-04                -168.613544406149
                         18        0.119916E-03                -168.613544405789
                         19        0.131607E-03                -168.613544405591
                         20        0.169309E-03                -168.613544404773
                         21        0.551337E-04                -168.613544406656
                         22        0.382664E-04                -168.613544406759
                         23        0.378942E-04                -168.613544406765
                         24        0.381089E-04                -168.613544406765
                         25        0.390835E-04                -168.613544406759
                         26        0.308614E-04                -168.613544406841
                         27        0.205044E-04                -168.613544406892
                         28        0.200942E-04                -168.613544406893
                         29        0.199375E-04                -168.613544406893
                         30        0.200198E-04                -168.613544406894
                         31        0.161325E-04                -168.613544406903
                         32        0.330614E-05                -168.613544406925
                         33        0.238713E-05                -168.613544406926
                         34        0.265439E-05                -168.613544406926
                         35        0.277073E-05                -168.613544406926
                         36        0.335175E-05                -168.613544406926
                         37        0.148809E-05                -168.613544406927
                         38        0.133447E-05                -168.613544406927
                         39        0.918735E-06                -168.613544406927

 Energy components [Hartree]           Total Energy ::         -168.613544406927
                                        Band Energy ::          -26.569761966525
                                     Kinetic Energy ::           97.306723392622
                                   Potential Energy ::         -265.920267799548
                                      Virial (-V/T) ::            2.732804666812
                                        Core Energy ::         -299.567979157577
                                          XC Energy ::          -16.227189041387
                                     Coulomb Energy ::          147.181623792037
                       Total Pseudopotential Energy ::         -396.961043505191
                       Local Pseudopotential Energy ::         -362.648291121960
                    Nonlocal Pseudopotential Energy ::          -34.312752383230
                                        Confinement ::            0.863409549921

 Orbital energies  State     Spin  L     Occupation   Energy[a.u.]    Energy[eV]

                       1    alpha  0          1.000      -4.172666   -113.544030
                       2    alpha  0          1.000      -0.181431     -4.936983
                       1     beta  0          1.000      -4.140640   -112.672541
                       2     beta  0          1.000      -0.176372     -4.799339

                       1    alpha  1          3.000      -2.578739    -70.171064
                       1     beta  1          3.000      -2.547579    -69.323162

                       1    alpha  2          4.350      -0.327039     -8.899191
                       1     beta  2          3.650      -0.300569     -8.178887


 Total Electron Density at R=0:                                         0.030422

 Guess for atomic kind: Ni_b

 Electronic structure
    Total number of core electrons                                         10.00
    Total number of valence electrons                                      18.00
    Total number of electrons                                              28.00
    Multiplicity                                                         doublet
    Alpha Electrons
    S   [  1.00  1.00] 1.00  1.00
    P   [  3.00] 3.00
    D      4.25
    Beta Electrons
    S   [  1.00  1.00] 1.00  1.00
    P   [  3.00] 3.00
    D      3.75


 *******************************************************************************
                  Iteration          Convergence                     Energy [au]
 *******************************************************************************
                          1         1.51687                    -167.065012761055
                          2         14.9817                    -156.620431300845
                          3         2.25575                    -168.317311438693
                          4        0.189210                    -168.607926092750
                          5        0.708658E-01                -168.610773319290
                          6        0.122256E-01                -168.611238205502
                          7        0.598421E-02                -168.611272268995
                          8        0.528277E-02                -168.611272438110
                          9        0.104644E-02                -168.611275321653
                         10        0.260234E-02                -168.611274926630
                         11        0.975322E-03                -168.611275328217
                         12        0.161067E-03                -168.611275447773
                         13        0.147413E-03                -168.611275446839
                         14        0.115114E-03                -168.611275449434
                         15        0.167217E-03                -168.611275445436
                         16        0.255374E-04                -168.611275450531
                         17        0.418369E-04                -168.611275450414
                         18        0.393709E-04                -168.611275450477
                         19        0.239931E-04                -168.611275450542
                         20        0.173885E-04                -168.611275450557
                         21        0.851368E-05                -168.611275450578
                         22        0.849928E-05                -168.611275450580
                         23        0.544937E-05                -168.611275450584
                         24        0.540003E-05                -168.611275450586
                         25        0.613371E-05                -168.611275450584
                         26        0.311593E-06                -168.611275450588

 Energy components [Hartree]           Total Energy ::         -168.611275450588
                                        Band Energy ::          -26.568680144499
                                     Kinetic Energy ::           97.303659243130
                                   Potential Energy ::         -265.914934693718
                                      Virial (-V/T) ::            2.732835915546
                                        Core Energy ::         -299.566189183323
                                          XC Energy ::          -16.224592878785
                                     Coulomb Energy ::          147.179506611520
                       Total Pseudopotential Energy ::         -396.956189041778
                       Local Pseudopotential Energy ::         -362.645043136649
                    Nonlocal Pseudopotential Energy ::          -34.311145905129
                                        Confinement ::            0.863406153250

 Orbital energies  State     Spin  L     Occupation   Energy[a.u.]    Energy[eV]

                       1    alpha  0          1.000      -4.168335   -113.426177
                       2    alpha  0          1.000      -0.180730     -4.917906
                       1     beta  0          1.000      -4.145459   -112.803683
                       2     beta  0          1.000      -0.177117     -4.819606

                       1    alpha  1          3.000      -2.574525    -70.056390
                       1     beta  1          3.000      -2.552268    -69.450746

                       1    alpha  2          4.250      -0.323446     -8.801405
                       1     beta  2          3.750      -0.304537     -8.286881


 Total Electron Density at R=0:                                         0.030429

 Spin 1
 Re-scaling the density matrix to get the right number of electrons for spin 1
                  # Electrons              Trace(P)               Scaling factor
                        297.600             297.600                        1.000

 Spin 2
 Re-scaling the density matrix to get the right number of electrons for spin 2
                  # Electrons              Trace(P)               Scaling factor
                        278.400             278.400                        1.000


 SCF WAVEFUNCTION OPTIMIZATION

  Step     Update method      Time    Convergence         Total energy    Change
  ------------------------------------------------------------------------------
     1 NoMix/Diag. 0.40E+00    4.6     0.87318318     -5426.4441344177 -5.43E+03
     2 Broy./Diag. 0.40E+00    1.5     0.35240818     -5353.2879118101  7.32E+01
[...]
   123 Broy./Diag. 0.40E+00    1.5     0.00917522     -5417.6682935299  1.03E-01
   124 Broy./Diag. 0.40E+00    1.5     0.00887841     -5417.7103253476 -4.20E-02
   125 Broy./Diag. 0.40E+00    1.5     0.00723659     -5417.7891631746 -7.88E-02
   126 Broy./Diag. 0.40E+00    1.5     0.00781597     -5417.8989673049 -1.10E-01
   127 Broy./Diag. 0.40E+00    1.5     0.00934866     -5417.8578650857  4.11E-02
   128 Broy./Diag. 0.40E+00    1.5     0.00961883     -5417.7119207630  1.46E-01
   129 Broy./Diag. 0.40E+00    1.5     0.00986111     -5417.6073501583  1.05E-01
   130 Broy./Diag. 0.40E+00    1.5     0.01325185     -5417.6791587469 -7.18E-02
   131 Broy./Diag. 0.40E+00    1.5     0.00883340     -5417.8147225600 -1.36E-01
   132 Broy./Diag. 0.40E+00    1.5     0.00612641     -5417.9176730465 -1.03E-01
   133 Broy./Diag. 0.40E+00    1.5     0.00710133     -5417.8833749723  3.43E-02
   134 Broy./Diag. 0.40E+00    1.5     0.00760090     -5417.6711732890  2.12E-01
   135 Broy./Diag. 0.40E+00    1.5     0.00624526     -5417.6724959782 -1.32E-03
   136 Broy./Diag. 0.40E+00    1.5     0.00799758     -5417.7716498043 -9.92E-02
   137 Broy./Diag. 0.40E+00    1.5     0.00713306     -5417.8531455071 -8.15E-02
   138 Broy./Diag. 0.40E+00    1.5     0.00708185     -5417.8691675115 -1.60E-02
   139 Broy./Diag. 0.40E+00    1.5     0.00949542     -5417.7309895407  1.38E-01
   140 Broy./Diag. 0.40E+00    1.5     0.00974906     -5417.7450067468 -1.40E-02
   141 Broy./Diag. 0.40E+00    1.5     0.01313235     -5417.7144818510  3.05E-02
   142 Broy./Diag. 0.40E+00    1.5     0.00882802     -5417.7510512339 -3.66E-02
   143 Broy./Diag. 0.40E+00    1.5     0.00751123     -5417.7939137878 -4.29E-02
   144 Broy./Diag. 0.40E+00    1.5     0.00832560     -5417.8762130150 -8.23E-02
   145 Broy./Diag. 0.40E+00    1.6     0.00720981     -5417.8017140208  7.45E-02
   146 Broy./Diag. 0.40E+00    1.6     0.00612150     -5417.6967753220  1.05E-01
   147 Broy./Diag. 0.40E+00    1.5     0.00788691     -5417.7240716855 -2.73E-02
   148 Broy./Diag. 0.40E+00    1.5     0.00889957     -5417.8008726626 -7.68E-02
   149 Broy./Diag. 0.40E+00    1.5     0.00573129     -5417.8254913627 -2.46E-02
   150 Broy./Diag. 0.40E+00    1.5     0.01031624     -5417.8316746023 -6.18E-03
   151 Broy./Diag. 0.40E+00    1.5     0.01130968     -5417.7802485949  5.14E-02
   152 Broy./Diag. 0.40E+00    1.5     0.01292086     -5417.6835737219  9.67E-02
   153 Broy./Diag. 0.40E+00    1.5     0.01005111     -5417.7612839155 -7.77E-02
   154 Broy./Diag. 0.40E+00    1.5     0.01001655     -5417.7789981076 -1.77E-02
   155 Broy./Diag. 0.40E+00    1.5     0.01087295     -5417.9172590086 -1.38E-01
   156 Broy./Diag. 0.40E+00    1.5     0.00889671     -5417.7492853888  1.68E-01
   157 Broy./Diag. 0.40E+00    1.5     0.00503727     -5417.6986254776  5.07E-02
   158 Broy./Diag. 0.40E+00    1.5     0.00921798     -5417.6776565982  2.10E-02
   159 Broy./Diag. 0.40E+00    1.5     0.01027441     -5417.8738314485 -1.96E-01
   160 Broy./Diag. 0.40E+00    1.5     0.01052269     -5417.8893626612 -1.55E-02
   161 Broy./Diag. 0.40E+00    1.5     0.01039473     -5417.8469353168  4.24E-02
   162 Broy./Diag. 0.40E+00    1.5     0.01064492     -5417.6739974188  1.73E-01
   163 Broy./Diag. 0.40E+00    1.5     0.01390264     -5417.6272660439  4.67E-02
   164 Broy./Diag. 0.40E+00    1.5     0.01410684     -5417.7371087581 -1.10E-01
   165 Broy./Diag. 0.40E+00    1.5     0.01229969     -5417.8433525577 -1.06E-01
   166 Broy./Diag. 0.40E+00    1.5     0.01195023     -5417.9232057416 -7.99E-02
   167 Broy./Diag. 0.40E+00    1.5     0.01325317     -5417.8375770662  8.56E-02
   168 Broy./Diag. 0.40E+00    1.5     0.01284617     -5417.7349773160  1.03E-01
   169 Broy./Diag. 0.40E+00    1.5     0.00857278     -5417.6485667242  8.64E-02
   170 Broy./Diag. 0.40E+00    1.5     0.00819533     -5417.7427404593 -9.42E-02
   171 Broy./Diag. 0.40E+00    1.5     0.00841617     -5417.8159794038 -7.32E-02
   172 Broy./Diag. 0.40E+00    1.5     0.01036424     -5417.8747698864 -5.88E-02
   173 Broy./Diag. 0.40E+00    1.5     0.01465640     -5417.8406996648  3.41E-02
   174 Broy./Diag. 0.40E+00    1.5     0.01526758     -5417.7435797795  9.71E-02
   175 Broy./Diag. 0.40E+00    1.5     0.01644877     -5417.7184221119  2.52E-02
   176 Broy./Diag. 0.40E+00    1.5     0.01241896     -5417.6586062362  5.98E-02
   177 Broy./Diag. 0.40E+00    1.5     0.01114013     -5417.7492168119 -9.06E-02
   178 Broy./Diag. 0.40E+00    1.5     0.00912166     -5417.9504307689 -2.01E-01
   179 Broy./Diag. 0.40E+00    1.5     0.01041255     -5417.8594200984  9.10E-02
   180 Broy./Diag. 0.40E+00    1.5     0.00829048     -5417.6278708237  2.32E-01
   181 Broy./Diag. 0.40E+00    1.5     0.01231333     -5417.7175557259 -8.97E-02
   182 Broy./Diag. 0.40E+00    1.5     0.01626181     -5417.6944207138  2.31E-02
   183 Broy./Diag. 0.40E+00    1.5     0.01701184     -5417.8267470329 -1.32E-01
   184 Broy./Diag. 0.40E+00    1.5     0.01466068     -5417.9106395133 -8.39E-02
   185 Broy./Diag. 0.40E+00    1.5     0.02434450     -5417.7695351535  1.41E-01
   186 Broy./Diag. 0.40E+00    1.5     0.01576065     -5417.7914182722 -2.19E-02
   187 Broy./Diag. 0.40E+00    1.5     0.01261529     -5417.6383569799  1.53E-01
   188 Broy./Diag. 0.40E+00    1.5     0.01646318     -5417.8062734935 -1.68E-01
   189 Broy./Diag. 0.40E+00    1.5     0.01327347     -5417.8472128024 -4.09E-02
   190 Broy./Diag. 0.40E+00    1.5     0.01391847     -5417.8951770172 -4.80E-02
   191 Broy./Diag. 0.40E+00    1.5     0.01151298     -5417.6816657678  2.14E-01
   192 Broy./Diag. 0.40E+00    1.5     0.01524186     -5417.7113310135 -2.97E-02
   193 Broy./Diag. 0.40E+00    1.5     0.01361659     -5417.7080507161  3.28E-03
   194 Broy./Diag. 0.40E+00    1.5     0.01617292     -5417.7908552503 -8.28E-02
   195 Broy./Diag. 0.40E+00    1.5     0.01467704     -5417.9381224543 -1.47E-01
   196 Broy./Diag. 0.40E+00    1.5     0.02512739     -5417.7757230965  1.62E-01
   197 Broy./Diag. 0.40E+00    1.5     0.02210079     -5417.6911804289  8.45E-02
   198 Broy./Diag. 0.40E+00    1.5     0.01133066     -5417.7116252623 -2.04E-02
   199 Broy./Diag. 0.40E+00    1.5     0.01322332     -5417.7147573214 -3.13E-03
   200 Broy./Diag. 0.40E+00    1.5     0.01066918     -5417.8959601744 -1.81E-01
   201 Broy./Diag. 0.40E+00    1.5     0.01049663     -5417.8708701638  2.51E-02
   202 Broy./Diag. 0.40E+00    1.5     0.01251064     -5417.7529581527  1.18E-01
   203 Broy./Diag. 0.40E+00    1.5     0.01536501     -5417.7118979098  4.11E-02
   204 Broy./Diag. 0.40E+00    1.5     0.01562721     -5417.6939732243  1.79E-02
   205 Broy./Diag. 0.40E+00    1.5     0.01272084     -5417.7762449201 -8.23E-02
   206 Broy./Diag. 0.40E+00    1.5     0.01173208     -5417.9143129111 -1.38E-01
   207 Broy./Diag. 0.40E+00    1.5     0.01367778     -5417.8255409235  8.88E-02
   208 Broy./Diag. 0.40E+00    1.5     0.01079446     -5417.7370294602  8.85E-02
   209 Broy./Diag. 0.40E+00    1.5     0.00787376     -5417.6696496377  6.74E-02
   210 Broy./Diag. 0.40E+00    1.5     0.00819876     -5417.7900039685 -1.20E-01
   211 Broy./Diag. 0.40E+00    1.5     0.00768346     -5417.7984175371 -8.41E-03
   212 Broy./Diag. 0.40E+00    1.5     0.00884063     -5417.8896731310 -9.13E-02
   213 Broy./Diag. 0.40E+00    1.5     0.01153626     -5417.7585183754  1.31E-01
   214 Broy./Diag. 0.40E+00    1.5     0.01004913     -5417.7293426469  2.92E-02
   215 Broy./Diag. 0.40E+00    1.5     0.01641169     -5417.6756943941  5.36E-02
   216 Broy./Diag. 0.40E+00    1.5     0.01238892     -5417.8179633612 -1.42E-01
   217 Broy./Diag. 0.40E+00    1.5     0.01296510     -5417.8751879749 -5.72E-02
   218 Broy./Diag. 0.40E+00    1.5     0.01201618     -5417.8405323062  3.47E-02
   219 Broy./Diag. 0.40E+00    1.5     0.01176973     -5417.6891002481  1.51E-01
   220 Broy./Diag. 0.40E+00    1.5     0.01231437     -5417.7035053474 -1.44E-02
   221 Broy./Diag. 0.40E+00    1.5     0.01323600     -5417.7341871393 -3.07E-02
   222 Broy./Diag. 0.40E+00    1.5     0.00930254     -5417.8838504469 -1.50E-01
   223 Broy./Diag. 0.40E+00    1.5     0.00873176     -5417.8280697432  5.58E-02
   224 Broy./Diag. 0.40E+00    1.5     0.01124351     -5417.8197948762  8.27E-03
   225 Broy./Diag. 0.40E+00    1.5     0.01228968     -5417.7290992955  9.07E-02
   226 Broy./Diag. 0.40E+00    1.5     0.01351348     -5417.6875084130  4.16E-02
   227 Broy./Diag. 0.40E+00    1.5     0.01038459     -5417.7614837961 -7.40E-02
   228 Broy./Diag. 0.40E+00    1.5     0.00814953     -5417.8967109328 -1.35E-01
   229 Broy./Diag. 0.40E+00    1.5     0.00875130     -5417.8602893292  3.64E-02
   230 Broy./Diag. 0.40E+00    1.5     0.00817862     -5417.7521408898  1.08E-01
   231 Broy./Diag. 0.40E+00    1.5     0.00951977     -5417.6513055974  1.01E-01
   232 Broy./Diag. 0.40E+00    1.5     0.01041924     -5417.7260292060 -7.47E-02
   233 Broy./Diag. 0.40E+00    1.5     0.00866412     -5417.7955487036 -6.95E-02
   234 Broy./Diag. 0.40E+00    1.5     0.00974461     -5417.8838525304 -8.83E-02
   235 Broy./Diag. 0.40E+00    1.5     0.01325797     -5417.8437618723  4.01E-02
   236 Broy./Diag. 0.40E+00    1.5     0.01553939     -5417.7814107530  6.24E-02
   237 Broy./Diag. 0.40E+00    1.5     0.01826980     -5417.6988706355  8.25E-02
   238 Broy./Diag. 0.40E+00    1.5     0.01713048     -5417.6598703986  3.90E-02
   239 Broy./Diag. 0.40E+00    1.5     0.01516710     -5417.7951994225 -1.35E-01
   240 Broy./Diag. 0.40E+00    1.5     0.01087476     -5417.8760602501 -8.09E-02
   241 Broy./Diag. 0.40E+00    1.5     0.01409551     -5417.8937005576 -1.76E-02
   242 Broy./Diag. 0.40E+00    1.5     0.01256351     -5417.8095363635  8.42E-02
   243 Broy./Diag. 0.40E+00    1.5     0.01502244     -5417.5663733884  2.43E-01
   244 Broy./Diag. 0.40E+00    1.5     0.01302425     -5417.7101415664 -1.44E-01
   245 Broy./Diag. 0.40E+00    1.5     0.01487246     -5417.7865929817 -7.65E-02
   246 Broy./Diag. 0.40E+00    1.5     0.01629379     -5417.9553397231 -1.69E-01
   247 Broy./Diag. 0.40E+00    1.5     0.01829013     -5417.8284572198  1.27E-01
   248 Broy./Diag. 0.40E+00    1.5     0.01876301     -5417.7855248793  4.29E-02
   249 Broy./Diag. 0.40E+00    1.5     0.02001678     -5417.5941225453  1.91E-01
   250 Broy./Diag. 0.40E+00    1.5     0.02262893     -5417.6370572362 -4.29E-02
   251 Broy./Diag. 0.40E+00    1.5     0.01550858     -5418.0013281367 -3.64E-01
   252 Broy./Diag. 0.40E+00    1.5     0.02078535     -5417.9306743539  7.07E-02
   253 Broy./Diag. 0.40E+00    1.5     0.02167513     -5417.6649830841  2.66E-01
   254 Broy./Diag. 0.40E+00    1.5     0.01890408     -5417.6289569582  3.60E-02
   255 Broy./Diag. 0.40E+00    1.5     0.01690237     -5417.6699328676 -4.10E-02
   256 Broy./Diag. 0.40E+00    1.5     0.01602262     -5417.8065223833 -1.37E-01
   257 Broy./Diag. 0.40E+00    1.5     0.01687381     -5417.9258513860 -1.19E-01
   258 Broy./Diag. 0.40E+00    1.5     0.02155271     -5417.8391630874  8.67E-02
   259 Broy./Diag. 0.40E+00    1.5     0.01592655     -5417.8374617881  1.70E-03
   260 Broy./Diag. 0.40E+00    1.5     0.01740107     -5417.6110212470  2.26E-01
   261 Broy./Diag. 0.40E+00    1.5     0.01350117     -5417.6728291933 -6.18E-02
   262 Broy./Diag. 0.40E+00    1.5     0.01464699     -5417.8013854789 -1.29E-01
   263 Broy./Diag. 0.40E+00    1.5     0.01540761     -5418.0221263595 -2.21E-01
   264 Broy./Diag. 0.40E+00    1.5     0.01613446     -5417.6960690855  3.26E-01
   265 Broy./Diag. 0.40E+00    1.5     0.01400371     -5417.6913689029  4.70E-03
   266 Broy./Diag. 0.40E+00    1.5     0.01594780     -5417.6271363244  6.42E-02
   267 Broy./Diag. 0.40E+00    1.5     0.01161564     -5417.8013763397 -1.74E-01
   268 Broy./Diag. 0.40E+00    1.5     0.01655596     -5417.9118757321 -1.10E-01
   269 Broy./Diag. 0.40E+00    1.5     0.02590001     -5417.9099990165  1.88E-03
   270 Broy./Diag. 0.40E+00    1.5     0.02747630     -5417.7464442334  1.64E-01
   271 Broy./Diag. 0.40E+00    1.5     0.02017617     -5417.6100147264  1.36E-01
   272 Broy./Diag. 0.40E+00    1.5     0.01793786     -5417.6925947434 -8.26E-02
   273 Broy./Diag. 0.40E+00    1.5     0.01188370     -5417.8127355188 -1.20E-01
   274 Broy./Diag. 0.40E+00    1.5     0.01588746     -5418.0088055694 -1.96E-01
   275 Broy./Diag. 0.40E+00    1.5     0.01492822     -5417.7881330377  2.21E-01
   276 Broy./Diag. 0.40E+00    1.5     0.01239414     -5417.7449890238  4.31E-02
   277 Broy./Diag. 0.40E+00    1.5     0.01012899     -5417.7009878481  4.40E-02
   278 Broy./Diag. 0.40E+00    1.5     0.01481207     -5417.7098485623 -8.86E-03
   279 Broy./Diag. 0.40E+00    1.5     0.01194030     -5417.8111940519 -1.01E-01
   280 Broy./Diag. 0.40E+00    1.5     0.01156328     -5417.8877480812 -7.66E-02
   281 Broy./Diag. 0.40E+00    1.5     0.01628906     -5417.7497555012  1.38E-01
   282 Broy./Diag. 0.40E+00    1.5     0.02123111     -5417.7831450331 -3.34E-02
   283 Broy./Diag. 0.40E+00    1.5     0.01454041     -5417.7430681332  4.01E-02
   284 Broy./Diag. 0.40E+00    1.5     0.01378638     -5417.6797436938  6.33E-02
   285 Broy./Diag. 0.40E+00    1.5     0.01499649     -5417.8316087090 -1.52E-01
   286 Broy./Diag. 0.40E+00    1.5     0.01278946     -5417.8374040042 -5.80E-03
   287 Broy./Diag. 0.40E+00    1.5     0.01134674     -5417.8343420684  3.06E-03
   288 Broy./Diag. 0.40E+00    1.5     0.01070092     -5417.7216905162  1.13E-01
   289 Broy./Diag. 0.40E+00    1.5     0.01197743     -5417.7118085861  9.88E-03
   290 Broy./Diag. 0.40E+00    1.5     0.01486746     -5417.7927088226 -8.09E-02
   291 Broy./Diag. 0.40E+00    1.5     0.01451979     -5417.8080373828 -1.53E-02
   292 Broy./Diag. 0.40E+00    1.5     0.01740744     -5417.8255178639 -1.75E-02
   293 Broy./Diag. 0.40E+00    1.5     0.01788540     -5417.8206050829  4.91E-03
   294 Broy./Diag. 0.40E+00    1.5     0.02063768     -5417.6683331042  1.52E-01
   295 Broy./Diag. 0.40E+00    1.5     0.01578866     -5417.8125124672 -1.44E-01
   296 Broy./Diag. 0.40E+00    1.5     0.01432644     -5417.7576603490  5.49E-02
   297 Broy./Diag. 0.40E+00    1.5     0.01312642     -5417.8517438462 -9.41E-02
   298 Broy./Diag. 0.40E+00    1.5     0.01527245     -5417.7589554619  9.28E-02
   299 Broy./Diag. 0.40E+00    1.5     0.01523165     -5417.7794717673 -2.05E-02
   300 Broy./Diag. 0.40E+00    1.5     0.01939598     -5417.7508700001  2.86E-02
   301 Broy./Diag. 0.40E+00    1.5     0.02106153     -5417.7247342076  2.61E-02
   302 Broy./Diag. 0.40E+00    1.5     0.01827629     -5417.8185164272 -9.38E-02
   303 Broy./Diag. 0.40E+00    1.5     0.02369369     -5417.8152594589  3.26E-03
   304 Broy./Diag. 0.40E+00    1.5     0.02021916     -5417.7481447129  6.71E-02
   305 Broy./Diag. 0.40E+00    1.5     0.02136623     -5417.8334995316 -8.54E-02
   306 Broy./Diag. 0.40E+00    1.5     0.01687217     -5417.7024461661  1.31E-01
   307 Broy./Diag. 0.40E+00    1.5     0.01445492     -5417.8424651317 -1.40E-01
   308 Broy./Diag. 0.40E+00    1.5     0.01199837     -5417.7014485521  1.41E-01
   309 Broy./Diag. 0.40E+00    1.5     0.01618604     -5417.8408816302 -1.39E-01
   310 Broy./Diag. 0.40E+00    1.5     0.01804695     -5417.7738199479  6.71E-02
   311 Broy./Diag. 0.40E+00    1.5     0.01700749     -5417.7439869842  2.98E-02
   312 Broy./Diag. 0.40E+00    1.5     0.01950015     -5417.8017872887 -5.78E-02
   313 Broy./Diag. 0.40E+00    1.5     0.01804068     -5417.7513115963  5.05E-02
   314 Broy./Diag. 0.40E+00    1.5     0.01616776     -5417.7625916414 -1.13E-02
   315 Broy./Diag. 0.40E+00    1.5     0.02796481     -5417.7902528984 -2.77E-02
   316 Broy./Diag. 0.40E+00    1.5     0.02475949     -5417.8558007401 -6.55E-02
   317 Broy./Diag. 0.40E+00    1.5     0.02762658     -5417.7035338349  1.52E-01
   318 Broy./Diag. 0.40E+00    1.5     0.01908458     -5417.8185365063 -1.15E-01
   319 Broy./Diag. 0.40E+00    1.5     0.01874288     -5417.6996767905  1.19E-01
   320 Broy./Diag. 0.40E+00    1.5     0.01506184     -5417.8873479313 -1.88E-01
   321 Broy./Diag. 0.40E+00    1.5     0.01235531     -5417.7037646750  1.84E-01
   322 Broy./Diag. 0.40E+00    1.5     0.02179346     -5417.8518905554 -1.48E-01
   323 Broy./Diag. 0.40E+00    1.5     0.02262416     -5417.7604098524  9.15E-02
   324 Broy./Diag. 0.40E+00    1.5     0.02573699     -5417.7437224598  1.67E-02
   325 Broy./Diag. 0.40E+00    1.5     0.01874001     -5417.8007273456 -5.70E-02
   326 Broy./Diag. 0.40E+00    1.5     0.03764552     -5417.7696152654  3.11E-02
   327 Broy./Diag. 0.40E+00    1.5     0.03221506     -5417.8549223562 -8.53E-02
   328 Broy./Diag. 0.40E+00    1.5     0.03974181     -5417.6807908351  1.74E-01
   329 Broy./Diag. 0.40E+00    1.5     0.02856031     -5417.8537817504 -1.73E-01
   330 Broy./Diag. 0.40E+00    1.5     0.02724711     -5417.7034332503  1.50E-01
   331 Broy./Diag. 0.40E+00    1.5     0.02367271     -5417.9114785873 -2.08E-01
   332 Broy./Diag. 0.40E+00    1.5     0.02291059     -5417.6109421152  3.01E-01
   333 Broy./Diag. 0.40E+00    1.5     0.02595093     -5417.9027078142 -2.92E-01
   334 Broy./Diag. 0.40E+00    1.5     0.02749233     -5417.6733929616  2.29E-01
   335 Broy./Diag. 0.40E+00    1.5     0.03874925     -5417.8056095407 -1.32E-01
   336 Broy./Diag. 0.40E+00    1.5     0.03948719     -5417.8329806772 -2.74E-02
   337 Broy./Diag. 0.40E+00    1.5     0.04462696     -5417.7372525015  9.57E-02
   338 Broy./Diag. 0.40E+00    1.5     0.05877489     -5417.8786945651 -1.41E-01
   339 Broy./Diag. 0.40E+00    1.5     0.06060320     -5417.5757853893  3.03E-01
   340 Broy./Diag. 0.40E+00    1.5     0.06387547     -5417.9037062804 -3.28E-01
   341 Broy./Diag. 0.40E+00    1.5     0.05029925     -5417.6913014041  2.12E-01
   342 Broy./Diag. 0.40E+00    1.5     0.04512045     -5418.0876780476 -3.96E-01
   343 Broy./Diag. 0.40E+00    1.5     0.04072974     -5417.5159589625  5.72E-01
   344 Broy./Diag. 0.40E+00    1.5     0.05607199     -5417.9992864255 -4.83E-01
   345 Broy./Diag. 0.40E+00    1.5     0.03947082     -5417.5238208087  4.75E-01
   346 Broy./Diag. 0.40E+00    1.5     0.06710289     -5417.9091883662 -3.85E-01
   347 Broy./Diag. 0.40E+00    1.5     0.07608449     -5417.8321924013  7.70E-02
   348 Broy./Diag. 0.40E+00    1.5     0.07054835     -5417.6837294359  1.48E-01
   349 Broy./Diag. 0.40E+00    1.5     0.09906166     -5417.9550224969 -2.71E-01
   350 Broy./Diag. 0.40E+00    1.5     0.13029105     -5417.4557363707  4.99E-01
   351 Broy./Diag. 0.40E+00    1.5     0.10235537     -5418.0702915149 -6.15E-01
   352 Broy./Diag. 0.40E+00    1.5     0.08858194     -5417.5958312912  4.74E-01
   353 Broy./Diag. 0.40E+00    1.5     0.08350928     -5418.3001224810 -7.04E-01
   354 Broy./Diag. 0.40E+00    1.5     0.09078191     -5417.2480876528  1.05E+00
   355 Broy./Diag. 0.40E+00    1.5     0.07820767     -5418.2309741895 -9.83E-01
   356 Broy./Diag. 0.40E+00    1.5     0.09667438     -5417.4071354758  8.24E-01
   357 Broy./Diag. 0.40E+00    1.5     0.13661174     -5418.1382907840 -7.31E-01
   358 Broy./Diag. 0.40E+00    1.5     0.15150528     -5417.7487767013  3.90E-01
   359 Broy./Diag. 0.40E+00    1.5     0.10556668     -5417.5763932718  1.72E-01
   360 Broy./Diag. 0.40E+00    1.5     0.18019843     -5418.1810223482 -6.05E-01
   361 Broy./Diag. 0.40E+00    1.5     0.22072817     -5417.2064092628  9.75E-01
   362 Broy./Diag. 0.40E+00    1.5     0.19593551     -5418.3348173184 -1.13E+00
   363 Broy./Diag. 0.40E+00    1.5     0.17653069     -5417.3045311135  1.03E+00
   364 Broy./Diag. 0.40E+00    1.5     0.14641854     -5418.9033962239 -1.60E+00
   365 Broy./Diag. 0.40E+00    1.5     0.20775779     -5416.8300779230  2.07E+00
   366 Broy./Diag. 0.40E+00    1.5     0.14089161     -5418.4990811260 -1.67E+00
   367 Broy./Diag. 0.40E+00    1.5     0.16903891     -5417.2516787013  1.25E+00
   368 Broy./Diag. 0.40E+00    1.5     0.14340082     -5418.4570091616 -1.21E+00
