 DBCSR| CPU Multiplication driver                                           XSMM (U)
 DBCSR| Multrec recursion limit                                              512 (U)
 DBCSR| Multiplication stack size                                           1000 (D)
 DBCSR| Maximum elements for images                                    UNLIMITED (U)
 DBCSR| Multiplicative factor virtual images                                   1 (U)
 DBCSR| Use multiplication densification                                       T (D)
 DBCSR| Multiplication size stacks                                             3 (U)
 DBCSR| Use memory pool for CPU allocation                                     F (U)
 DBCSR| Number of 3D layers                                               SINGLE (U)
 DBCSR| Use MPI memory allocation                                              F (U)
 DBCSR| Use RMA algorithm                                                      F (U)
 DBCSR| Use Communication thread                                               T (U)
 DBCSR| Communication thread load                                             87 (D)
 DBCSR| MPI: My process id                                                     0
 DBCSR| MPI: Number of processes                                             128
 DBCSR| OMP: Current number of threads                                         1
 DBCSR| OMP: Max number of threads                                             1
 DBCSR| Split modifier for TAS multiplication algorithm                  1.0E+00 (U)


  **** **** ******  **  PROGRAM STARTED AT               2023-02-15 10:19:02.719
 ***** ** ***  *** **   PROGRAM STARTED ON                             nid003071
 **    ****   ******    PROGRAM STARTED BY                                cahart
 ***** **    ** ** **   PROGRAM PROCESS ID                                 14230
  **** **  *******  **  PROGRAM STARTED IN /mnt/lustre/a2fs-work2/work/e05/e05/c
                                           ahart/postdoc/masters/ni/archer2/slab
                                           /optimise/magnetisation/scf_1e-3_temp
                                           -2000_mos-1000_alpha-0.08_beta-1.5_pe
                                           riodic-xyz/search/0.21_0.6

 CP2K| version string:                 CP2K version 2023.1 (Development Version)
 CP2K| source code revision number:                                  git:964cd58
 CP2K| cp2kflags: omp libint fftw3 libxc elpa parallel scalapack xsmm plumed2 mk
 CP2K|            l
 CP2K| is freely available from                            https://www.cp2k.org/
 CP2K| Program compiled at                          Mon 13 Feb 17:05:14 GMT 2023
 CP2K| Program compiled on                                                  ln01
 CP2K| Program compiled for                                              ARCHER2
 CP2K| Data directory path    /work/e05/e05/cahart/cp2k/cp2k-2023.1/cp2k-2023.1-
 CP2K| Input file name                                                  cp2k.inp

 GLOBAL| Force Environment number                                              1
 GLOBAL| Basis set file name                                        BASIS_MOLOPT
 GLOBAL| Potential file name                                      GTH_POTENTIALS
 GLOBAL| MM Potential file name                                     MM_POTENTIAL
 GLOBAL| Coordinate file name                                      __STD_INPUT__
 GLOBAL| Method name                                                        CP2K
 GLOBAL| Project name                                                    Ni_bulk
 GLOBAL| Run type                                                         ENERGY
 GLOBAL| FFT library                                                       FFTW3
 GLOBAL| Diagonalization library                                            ELPA
 GLOBAL| DGEMM library                                                      BLAS
 GLOBAL| Minimum number of eigenvectors for ELPA usage                        16
 GLOBAL| Orthonormality check for eigenvectors                          DISABLED
 GLOBAL| Matrix multiplication library                                 ScaLAPACK
 GLOBAL| All-to-all communication in single precision                          F
 GLOBAL| FFTs using library dependent lengths                                  F
 GLOBAL| Grid backend                                                       AUTO
 GLOBAL| Global print level                                               MEDIUM
 GLOBAL| MPI I/O enabled                                                       T
 GLOBAL| Total number of message passing processes                           128
 GLOBAL| Number of threads for this process                                    1
 GLOBAL| This output is from process                                           0
 GLOBAL| Stack size for threads created by OpenMP (OMP_STACKSIZE)        default
 GLOBAL| CPU model name                          AMD EPYC 7742 64-Core Processor
 GLOBAL| CPUID                                                              1002

 MEMORY| system memory details [Kb]
 MEMORY|                        rank 0           min           max       average
 MEMORY| MemTotal            263528084     263528084     263528084     263528084
 MEMORY| MemFree             238698504     238698504     238698504     238698504
 MEMORY| Buffers                 29584         29584         29584         29584
 MEMORY| Cached                 824232        824232        824232        824232
 MEMORY| Slab                  1591896       1591896       1591896       1591896
 MEMORY| SReclaimable           101624        101624        101624        101624
 MEMORY| MemLikelyFree       239653944     239653944     239653944     239653944


 *** Fundamental physical constants (SI units) ***

 *** Literature: B. J. Mohr and B. N. Taylor,
 ***             CODATA recommended values of the fundamental physical
 ***             constants: 2006, Web Version 5.1
 ***             http://physics.nist.gov/constants

 Speed of light in vacuum [m/s]                             2.99792458000000E+08
 Magnetic constant or permeability of vacuum [N/A**2]       1.25663706143592E-06
 Electric constant or permittivity of vacuum [F/m]          8.85418781762039E-12
 Planck constant (h) [J*s]                                  6.62606896000000E-34
 Planck constant (h-bar) [J*s]                              1.05457162825177E-34
 Elementary charge [C]                                      1.60217648700000E-19
 Electron mass [kg]                                         9.10938215000000E-31
 Electron g factor [ ]                                     -2.00231930436220E+00
 Proton mass [kg]                                           1.67262163700000E-27
 Fine-structure constant                                    7.29735253760000E-03
 Rydberg constant [1/m]                                     1.09737315685270E+07
 Avogadro constant [1/mol]                                  6.02214179000000E+23
 Boltzmann constant [J/K]                                   1.38065040000000E-23
 Atomic mass unit [kg]                                      1.66053878200000E-27
 Bohr radius [m]                                            5.29177208590000E-11

 *** Conversion factors ***

 [u] -> [a.u.]                                              1.82288848426455E+03
 [Angstrom] -> [Bohr] = [a.u.]                              1.88972613288564E+00
 [a.u.] = [Bohr] -> [Angstrom]                              5.29177208590000E-01
 [a.u.] -> [s]                                              2.41888432650478E-17
 [a.u.] -> [fs]                                             2.41888432650478E-02
 [a.u.] -> [J]                                              4.35974393937059E-18
 [a.u.] -> [N]                                              8.23872205491840E-08
 [a.u.] -> [K]                                              3.15774647902944E+05
 [a.u.] -> [kJ/mol]                                         2.62549961709828E+03
 [a.u.] -> [kcal/mol]                                       6.27509468713739E+02
 [a.u.] -> [Pa]                                             2.94210107994716E+13
 [a.u.] -> [bar]                                            2.94210107994716E+08
 [a.u.] -> [atm]                                            2.90362800883016E+08
 [a.u.] -> [eV]                                             2.72113838565563E+01
 [a.u.] -> [Hz]                                             6.57968392072181E+15
 [a.u.] -> [1/cm] (wave numbers)                            2.19474631370540E+05
 [a.u./Bohr**2] -> [1/cm]                                   5.14048714338585E+03
 

 CELL_TOP| Volume [angstrom^3]:                                       983.249569
 CELL_TOP| Vector a [angstrom     7.012     0.000     0.000   |a| =     7.011596
 CELL_TOP| Vector b [angstrom     0.000     7.012     0.000   |b| =     7.011596
 CELL_TOP| Vector c [angstrom     0.000     0.000    20.000   |c| =    20.000000
 CELL_TOP| Angle (b,c), alpha [degree]:                                90.000000
 CELL_TOP| Angle (a,c), beta  [degree]:                                90.000000
 CELL_TOP| Angle (a,b), gamma [degree]:                                90.000000
 CELL_TOP| Numerically orthorhombic:                                         YES
 CELL_TOP| Periodicity                                                       XYZ

 GENERATE|  Preliminary Number of Bonds generated:                             0
 GENERATE|  Achieved consistency in connectivity generation.

 CELL| Volume [angstrom^3]:                                           983.249569
 CELL| Vector a [angstrom]:       7.012     0.000     0.000   |a| =     7.011596
 CELL| Vector b [angstrom]:       0.000     7.012     0.000   |b| =     7.011596
 CELL| Vector c [angstrom]:       0.000     0.000    20.000   |c| =    20.000000
 CELL| Angle (b,c), alpha [degree]:                                    90.000000
 CELL| Angle (a,c), beta  [degree]:                                    90.000000
 CELL| Angle (a,b), gamma [degree]:                                    90.000000
 CELL| Numerically orthorhombic:                                             YES
 CELL| Periodicity                                                           XYZ

 CELL_REF| Volume [angstrom^3]:                                       983.249569
 CELL_REF| Vector a [angstrom     7.012     0.000     0.000   |a| =     7.011596
 CELL_REF| Vector b [angstrom     0.000     7.012     0.000   |b| =     7.011596
 CELL_REF| Vector c [angstrom     0.000     0.000    20.000   |c| =    20.000000
 CELL_REF| Angle (b,c), alpha [degree]:                                90.000000
 CELL_REF| Angle (a,c), beta  [degree]:                                90.000000
 CELL_REF| Angle (a,b), gamma [degree]:                                90.000000
 CELL_REF| Numerically orthorhombic:                                         YES
 CELL_REF| Periodicity                                                       XYZ

 *** WARNING in cryssym.F:165 :: Symmetry library SPGLIB not available ***


 *******************************************************************************
                                    Kpoints
 *******************************************************************************
 BRILLOUIN| K-point scheme                                        Monkhorst-Pack
 BRILLOUIN| K-Point grid                                             4    4    1
 BRILLOUIN| Accuracy in Symmetry determination                      0.100000E-05
 BRILLOUIN| K-Point point group symmetrization                               OFF
 BRILLOUIN| Wavefunction type                                            COMPLEX
 BRILLOUIN| List of Kpoints [2 Pi/Bohr]                                        8
 BRILLOUIN| Number           Weight            X              Y              Z
 BRILLOUIN|     1           0.12500       -0.37500       -0.37500        0.00000
 BRILLOUIN|     2           0.12500       -0.37500       -0.12500        0.00000
 BRILLOUIN|     3           0.12500       -0.37500        0.12500        0.00000
 BRILLOUIN|     4           0.12500       -0.37500        0.37500        0.00000
 BRILLOUIN|     5           0.12500       -0.12500       -0.37500        0.00000
 BRILLOUIN|     6           0.12500       -0.12500       -0.12500        0.00000
 BRILLOUIN|     7           0.12500       -0.12500        0.12500        0.00000
 BRILLOUIN|     8           0.12500       -0.12500        0.37500        0.00000
 *******************************************************************************

 *******************************************************************************
 *******************************************************************************
 **                                                                           **
 **     #####                         ##              ##                      **
 **    ##   ##            ##          ##              ##                      **
 **   ##     ##                       ##            ######                    **
 **   ##     ##  ##   ##  ##   #####  ##  ##   ####   ##    #####    #####    **
 **   ##     ##  ##   ##  ##  ##      ## ##   ##      ##   ##   ##  ##   ##   **
 **   ##  ## ##  ##   ##  ##  ##      ####     ###    ##   ######   ######    **
 **    ##  ###   ##   ##  ##  ##      ## ##      ##   ##   ##       ##        **
 **     #######   #####   ##   #####  ##  ##  ####    ##    #####   ##        **
 **           ##                                                    ##        **
 **                                                                           **
 **                                                ... make the atoms dance   **
 **                                                                           **
 **            Copyright (C) by CP2K developers group (2000-2023)             **
 **                      J. Chem. Phys. 152, 194103 (2020)                    **
 **                                                                           **
 *******************************************************************************

 *** WARNING in qs_environment.F:1456 :: Number of electrons will be ***
 *** overwritten by NELEC_ALPHA and NELEC_BETA, multiplicity will be ***
 *** ignored.                                                        ***

 Number of electrons should be                                               576
 Sum of NELEC_ALPHA and NELEC_BETA is                                    576.000

 *** WARNING in qs_environment.F:1488 :: NELEC_ALPHA is not an integer, ***
 *** many features will not be supported.                               ***


 *** WARNING in qs_environment.F:1500 :: NELEC_BETA is not an integer, ***
 *** many features will not be supported.                              ***


 *** WARNING in qs_environment.F:1532 :: More ADDED_MOs requested for beta ***
 *** spin than available.                                                  ***


 *** WARNING in qs_environment.F:1548 :: More added MOs requested than     ***
 *** available. The full set of unoccupied MOs will be used. Use           ***
 *** 'ADDED_MOS -1' to always use all available MOs and to get rid of this ***
 *** warning.                                                              ***


 DFT| Spin unrestricted (spin-polarized) Kohn-Sham calculation               UKS
 DFT| Multiplicity                                                             1
 DFT| Number of spin states                                                    2
 DFT| Charge                                                                   0
 DFT| Self-interaction correction (SIC)                                       NO
 DFT| Cutoffs: density                                              1.000000E-10
 DFT|          gradient                                             1.000000E-10
 DFT|          tau                                                  1.000000E-10
 DFT|          cutoff_smoothing_range                               0.000000E+00
 DFT| XC density smoothing                                                  NONE
 DFT| XC derivatives                                                          PW

 FUNCTIONAL| PBE:
 FUNCTIONAL| J.P.Perdew, K.Burke, M.Ernzerhof, Phys. Rev. Letter, vol. 77, n 18,
 FUNCTIONAL|  pp. 3865-3868, (1996){spin polarized}                             

 vdW POTENTIAL|                                                   Pair Potential
 vdW POTENTIAL|          DFT-D3 (Version 3.1)
 vdW POTENTIAL|          Potential Form: S. Grimme et al, JCP 132: 154104 (2010)
 vdW POTENTIAL|          Zero Damping
 vdW POTENTIAL|          Cutoff Radius [Bohr]:                             20.00
 vdW POTENTIAL|          s6 Scaling Factor:                               1.0000
 vdW POTENTIAL|          sr6 Scaling Factor:                              1.2170
 vdW POTENTIAL|          s8 Scaling Factor:                               0.7220
 vdW POTENTIAL|          Cutoff for CN calculation:                   0.1000E-05

 QS| Method:                                                                 GPW
 QS| Density plane wave grid type                        NON-SPHERICAL FULLSPACE
 QS| Number of grid levels:                                                    5
 QS| Density cutoff [a.u.]:                                                300.0
 QS| Multi grid cutoff [a.u.]: 1) grid level                               300.0
 QS|                           2) grid level                               100.0
 QS|                           3) grid level                                33.3
 QS|                           4) grid level                                11.1
 QS|                           5) grid level                                 3.7
 QS| Grid level progression factor:                                          3.0
 QS| Relative density cutoff [a.u.]:                                        30.0
 QS| Interaction thresholds: eps_pgf_orb:                                1.0E-06
 QS|                         eps_filter_matrix:                          0.0E+00
 QS|                         eps_core_charge:                            1.0E-14
 QS|                         eps_rho_gspace:                             1.0E-12
 QS|                         eps_rho_rspace:                             1.0E-12
 QS|                         eps_gvg_rspace:                             1.0E-06
 QS|                         eps_ppl:                                    1.0E-02
 QS|                         eps_ppnl:                                   1.0E-08


 ATOMIC KIND INFORMATION

  1. Atomic kind: Ni_i                                  Number of atoms:      16

     Orbital Basis Set                                        DZVP-MOLOPT-SR-GTH

       Number of orbital shell sets:                                           1
       Number of orbital shells:                                               8
       Number of primitive Cartesian functions:                                6
       Number of Cartesian basis functions:                                   31
       Number of spherical basis functions:                                   26
       Norm type:                                                              2

       Normalised Cartesian orbitals:

                        Set   Shell   Orbital            Exponent    Coefficient

                          1       1    2s               10.077428      -0.684558
                                                         5.847736      -0.844524
                                                         2.494033       1.088856
                                                         0.988355       0.395503
                                                         0.344978       0.010224
                                                         0.099466      -0.003250

                          1       2    3s               10.077428       0.096747
                                                         5.847736       0.162504
                                                         2.494033      -0.297192
                                                         0.988355      -0.319752
                                                         0.344978       0.088318
                                                         0.099466       0.118587

                          1       3    4s               10.077428       0.036437
                                                         5.847736      -0.381480
                                                         2.494033       0.003759
                                                         0.988355      -1.048256
                                                         0.344978       0.855825
                                                         0.099466      -0.176350

                          1       4    3px              10.077428      -3.133913
                                                         5.847736       3.027656
                                                         2.494033       2.353227
                                                         0.988355       0.554184
                                                         0.344978       0.019462
                                                         0.099466      -0.000291
                          1       4    3py              10.077428      -3.133913
                                                         5.847736       3.027656
                                                         2.494033       2.353227
                                                         0.988355       0.554184
                                                         0.344978       0.019462
                                                         0.099466      -0.000291
                          1       4    3pz              10.077428      -3.133913
                                                         5.847736       3.027656
                                                         2.494033       2.353227
                                                         0.988355       0.554184
                                                         0.344978       0.019462
                                                         0.099466      -0.000291

                          1       5    4px              10.077428      -0.112729
                                                         5.847736      -0.114008
                                                         2.494033      -0.347303
                                                         0.988355      -0.110323
                                                         0.344978       0.154096
                                                         0.099466       0.058386
                          1       5    4py              10.077428      -0.112729
                                                         5.847736      -0.114008
                                                         2.494033      -0.347303
                                                         0.988355      -0.110323
                                                         0.344978       0.154096
                                                         0.099466       0.058386
                          1       5    4pz              10.077428      -0.112729
                                                         5.847736      -0.114008
                                                         2.494033      -0.347303
                                                         0.988355      -0.110323
                                                         0.344978       0.154096
                                                         0.099466       0.058386

                          1       6    4dx2             10.077428       8.232726
                                                         5.847736       9.105758
                                                         2.494033       2.849835
                                                         0.988355       0.554319
                                                         0.344978       0.067245
                                                         0.099466       0.001940
                          1       6    4dxy             10.077428      14.259500
                                                         5.847736      15.771636
                                                         2.494033       4.936060
                                                         0.988355       0.960109
                                                         0.344978       0.116472
                                                         0.099466       0.003360
                          1       6    4dxz             10.077428      14.259500
                                                         5.847736      15.771636
                                                         2.494033       4.936060
                                                         0.988355       0.960109
                                                         0.344978       0.116472
                                                         0.099466       0.003360
                          1       6    4dy2             10.077428       8.232726
                                                         5.847736       9.105758
                                                         2.494033       2.849835
                                                         0.988355       0.554319
                                                         0.344978       0.067245
                                                         0.099466       0.001940
                          1       6    4dyz             10.077428      14.259500
                                                         5.847736      15.771636
                                                         2.494033       4.936060
                                                         0.988355       0.960109
                                                         0.344978       0.116472
                                                         0.099466       0.003360
                          1       6    4dz2             10.077428       8.232726
                                                         5.847736       9.105758
                                                         2.494033       2.849835
                                                         0.988355       0.554319
                                                         0.344978       0.067245
                                                         0.099466       0.001940

                          1       7    5dx2             10.077428      -2.715373
                                                         5.847736      -4.020640
                                                         2.494033      -1.397569
                                                         0.988355      -0.076143
                                                         0.344978       0.033435
                                                         0.099466       0.026032
                          1       7    5dxy             10.077428      -4.703164
                                                         5.847736      -6.963952
                                                         2.494033      -2.420661
                                                         0.988355      -0.131883
                                                         0.344978       0.057911
                                                         0.099466       0.045088
                          1       7    5dxz             10.077428      -4.703164
                                                         5.847736      -6.963952
                                                         2.494033      -2.420661
                                                         0.988355      -0.131883
                                                         0.344978       0.057911
                                                         0.099466       0.045088
                          1       7    5dy2             10.077428      -2.715373
                                                         5.847736      -4.020640
                                                         2.494033      -1.397569
                                                         0.988355      -0.076143
                                                         0.344978       0.033435
                                                         0.099466       0.026032
                          1       7    5dyz             10.077428      -4.703164
                                                         5.847736      -6.963952
                                                         2.494033      -2.420661
                                                         0.988355      -0.131883
                                                         0.344978       0.057911
                                                         0.099466       0.045088
                          1       7    5dz2             10.077428      -2.715373
                                                         5.847736      -4.020640
                                                         2.494033      -1.397569
                                                         0.988355      -0.076143
                                                         0.344978       0.033435
                                                         0.099466       0.026032

                          1       8    5fx3             10.077428      -0.467694
                                                         5.847736       0.618100
                                                         2.494033       0.066069
                                                         0.988355       0.262898
                                                         0.344978       0.004720
                                                         0.099466       0.007748
                          1       8    5fx2y            10.077428      -1.045795
                                                         5.847736       1.382114
                                                         2.494033       0.147734
                                                         0.988355       0.587859
                                                         0.344978       0.010555
                                                         0.099466       0.017325
                          1       8    5fx2z            10.077428      -1.045795
                                                         5.847736       1.382114
                                                         2.494033       0.147734
                                                         0.988355       0.587859
                                                         0.344978       0.010555
                                                         0.099466       0.017325
                          1       8    5fxy2            10.077428      -1.045795
                                                         5.847736       1.382114
                                                         2.494033       0.147734
                                                         0.988355       0.587859
                                                         0.344978       0.010555
                                                         0.099466       0.017325
                          1       8    5fxyz            10.077428      -1.811371
                                                         5.847736       2.393892
                                                         2.494033       0.255883
                                                         0.988355       1.018201
                                                         0.344978       0.018282
                                                         0.099466       0.030008
                          1       8    5fxz2            10.077428      -1.045795
                                                         5.847736       1.382114
                                                         2.494033       0.147734
                                                         0.988355       0.587859
                                                         0.344978       0.010555
                                                         0.099466       0.017325
                          1       8    5fy3             10.077428      -0.467694
                                                         5.847736       0.618100
                                                         2.494033       0.066069
                                                         0.988355       0.262898
                                                         0.344978       0.004720
                                                         0.099466       0.007748
                          1       8    5fy2z            10.077428      -1.045795
                                                         5.847736       1.382114
                                                         2.494033       0.147734
                                                         0.988355       0.587859
                                                         0.344978       0.010555
                                                         0.099466       0.017325
                          1       8    5fyz2            10.077428      -1.045795
                                                         5.847736       1.382114
                                                         2.494033       0.147734
                                                         0.988355       0.587859
                                                         0.344978       0.010555
                                                         0.099466       0.017325
                          1       8    5fz3             10.077428      -0.467694
                                                         5.847736       0.618100
                                                         2.494033       0.066069
                                                         0.988355       0.262898
                                                         0.344978       0.004720
                                                         0.099466       0.007748

       Atomic covalent radius [Angstrom]:                                  1.150

       Atomic van der Waals radius [Angstrom]:                             1.630

     GTH Potential information for                                   GTH-PBE-q18

       Description:                       Goedecker-Teter-Hutter pseudopotential
                                           Goedecker et al., PRB 54, 1703 (1996)
                                          Hartwigsen et al., PRB 58, 3641 (1998)
                                                      Krack, TCA 114, 145 (2005)

       Gaussian exponent of the core charge distribution:               4.081633
       Electronic configuration (s p d ...):                           4   6   8

       Parameters of the local part of the GTH pseudopotential:

                          rloc        C1          C2          C3          C4
                        0.350000    2.102166    0.648484

       Parameters of the non-local part of the GTH pseudopotential:

                   l      r(l)      h(i,j,l)

                   0    0.261295    0.622658    9.970227
                                    9.970227  -12.871507
                   1    0.224253  -11.142708   12.429566
                                   12.429566  -14.706861
                   2    0.215348  -12.628146

  2. Atomic kind: Ni_b                                  Number of atoms:      16

     Orbital Basis Set                                        DZVP-MOLOPT-SR-GTH

       Number of orbital shell sets:                                           1
       Number of orbital shells:                                               8
       Number of primitive Cartesian functions:                                6
       Number of Cartesian basis functions:                                   31
       Number of spherical basis functions:                                   26
       Norm type:                                                              2

       Normalised Cartesian orbitals:

                        Set   Shell   Orbital            Exponent    Coefficient

                          1       1    2s               10.077428      -0.684558
                                                         5.847736      -0.844524
                                                         2.494033       1.088856
                                                         0.988355       0.395503
                                                         0.344978       0.010224
                                                         0.099466      -0.003250

                          1       2    3s               10.077428       0.096747
                                                         5.847736       0.162504
                                                         2.494033      -0.297192
                                                         0.988355      -0.319752
                                                         0.344978       0.088318
                                                         0.099466       0.118587

                          1       3    4s               10.077428       0.036437
                                                         5.847736      -0.381480
                                                         2.494033       0.003759
                                                         0.988355      -1.048256
                                                         0.344978       0.855825
                                                         0.099466      -0.176350

                          1       4    3px              10.077428      -3.133913
                                                         5.847736       3.027656
                                                         2.494033       2.353227
                                                         0.988355       0.554184
                                                         0.344978       0.019462
                                                         0.099466      -0.000291
                          1       4    3py              10.077428      -3.133913
                                                         5.847736       3.027656
                                                         2.494033       2.353227
                                                         0.988355       0.554184
                                                         0.344978       0.019462
                                                         0.099466      -0.000291
                          1       4    3pz              10.077428      -3.133913
                                                         5.847736       3.027656
                                                         2.494033       2.353227
                                                         0.988355       0.554184
                                                         0.344978       0.019462
                                                         0.099466      -0.000291

                          1       5    4px              10.077428      -0.112729
                                                         5.847736      -0.114008
                                                         2.494033      -0.347303
                                                         0.988355      -0.110323
                                                         0.344978       0.154096
                                                         0.099466       0.058386
                          1       5    4py              10.077428      -0.112729
                                                         5.847736      -0.114008
                                                         2.494033      -0.347303
                                                         0.988355      -0.110323
                                                         0.344978       0.154096
                                                         0.099466       0.058386
                          1       5    4pz              10.077428      -0.112729
                                                         5.847736      -0.114008
                                                         2.494033      -0.347303
                                                         0.988355      -0.110323
                                                         0.344978       0.154096
                                                         0.099466       0.058386

                          1       6    4dx2             10.077428       8.232726
                                                         5.847736       9.105758
                                                         2.494033       2.849835
                                                         0.988355       0.554319
                                                         0.344978       0.067245
                                                         0.099466       0.001940
                          1       6    4dxy             10.077428      14.259500
                                                         5.847736      15.771636
                                                         2.494033       4.936060
                                                         0.988355       0.960109
                                                         0.344978       0.116472
                                                         0.099466       0.003360
                          1       6    4dxz             10.077428      14.259500
                                                         5.847736      15.771636
                                                         2.494033       4.936060
                                                         0.988355       0.960109
                                                         0.344978       0.116472
                                                         0.099466       0.003360
                          1       6    4dy2             10.077428       8.232726
                                                         5.847736       9.105758
                                                         2.494033       2.849835
                                                         0.988355       0.554319
                                                         0.344978       0.067245
                                                         0.099466       0.001940
                          1       6    4dyz             10.077428      14.259500
                                                         5.847736      15.771636
                                                         2.494033       4.936060
                                                         0.988355       0.960109
                                                         0.344978       0.116472
                                                         0.099466       0.003360
                          1       6    4dz2             10.077428       8.232726
                                                         5.847736       9.105758
                                                         2.494033       2.849835
                                                         0.988355       0.554319
                                                         0.344978       0.067245
                                                         0.099466       0.001940

                          1       7    5dx2             10.077428      -2.715373
                                                         5.847736      -4.020640
                                                         2.494033      -1.397569
                                                         0.988355      -0.076143
                                                         0.344978       0.033435
                                                         0.099466       0.026032
                          1       7    5dxy             10.077428      -4.703164
                                                         5.847736      -6.963952
                                                         2.494033      -2.420661
                                                         0.988355      -0.131883
                                                         0.344978       0.057911
                                                         0.099466       0.045088
                          1       7    5dxz             10.077428      -4.703164
                                                         5.847736      -6.963952
                                                         2.494033      -2.420661
                                                         0.988355      -0.131883
                                                         0.344978       0.057911
                                                         0.099466       0.045088
                          1       7    5dy2             10.077428      -2.715373
                                                         5.847736      -4.020640
                                                         2.494033      -1.397569
                                                         0.988355      -0.076143
                                                         0.344978       0.033435
                                                         0.099466       0.026032
                          1       7    5dyz             10.077428      -4.703164
                                                         5.847736      -6.963952
                                                         2.494033      -2.420661
                                                         0.988355      -0.131883
                                                         0.344978       0.057911
                                                         0.099466       0.045088
                          1       7    5dz2             10.077428      -2.715373
                                                         5.847736      -4.020640
                                                         2.494033      -1.397569
                                                         0.988355      -0.076143
                                                         0.344978       0.033435
                                                         0.099466       0.026032

                          1       8    5fx3             10.077428      -0.467694
                                                         5.847736       0.618100
                                                         2.494033       0.066069
                                                         0.988355       0.262898
                                                         0.344978       0.004720
                                                         0.099466       0.007748
                          1       8    5fx2y            10.077428      -1.045795
                                                         5.847736       1.382114
                                                         2.494033       0.147734
                                                         0.988355       0.587859
                                                         0.344978       0.010555
                                                         0.099466       0.017325
                          1       8    5fx2z            10.077428      -1.045795
                                                         5.847736       1.382114
                                                         2.494033       0.147734
                                                         0.988355       0.587859
                                                         0.344978       0.010555
                                                         0.099466       0.017325
                          1       8    5fxy2            10.077428      -1.045795
                                                         5.847736       1.382114
                                                         2.494033       0.147734
                                                         0.988355       0.587859
                                                         0.344978       0.010555
                                                         0.099466       0.017325
                          1       8    5fxyz            10.077428      -1.811371
                                                         5.847736       2.393892
                                                         2.494033       0.255883
                                                         0.988355       1.018201
                                                         0.344978       0.018282
                                                         0.099466       0.030008
                          1       8    5fxz2            10.077428      -1.045795
                                                         5.847736       1.382114
                                                         2.494033       0.147734
                                                         0.988355       0.587859
                                                         0.344978       0.010555
                                                         0.099466       0.017325
                          1       8    5fy3             10.077428      -0.467694
                                                         5.847736       0.618100
                                                         2.494033       0.066069
                                                         0.988355       0.262898
                                                         0.344978       0.004720
                                                         0.099466       0.007748
                          1       8    5fy2z            10.077428      -1.045795
                                                         5.847736       1.382114
                                                         2.494033       0.147734
                                                         0.988355       0.587859
                                                         0.344978       0.010555
                                                         0.099466       0.017325
                          1       8    5fyz2            10.077428      -1.045795
                                                         5.847736       1.382114
                                                         2.494033       0.147734
                                                         0.988355       0.587859
                                                         0.344978       0.010555
                                                         0.099466       0.017325
                          1       8    5fz3             10.077428      -0.467694
                                                         5.847736       0.618100
                                                         2.494033       0.066069
                                                         0.988355       0.262898
                                                         0.344978       0.004720
                                                         0.099466       0.007748

       Atomic covalent radius [Angstrom]:                                  1.150

       Atomic van der Waals radius [Angstrom]:                             1.630

     GTH Potential information for                                   GTH-PBE-q18

       Description:                       Goedecker-Teter-Hutter pseudopotential
                                           Goedecker et al., PRB 54, 1703 (1996)
                                          Hartwigsen et al., PRB 58, 3641 (1998)
                                                      Krack, TCA 114, 145 (2005)

       Gaussian exponent of the core charge distribution:               4.081633
       Electronic configuration (s p d ...):                           4   6   8

       Parameters of the local part of the GTH pseudopotential:

                          rloc        C1          C2          C3          C4
                        0.350000    2.102166    0.648484

       Parameters of the non-local part of the GTH pseudopotential:

                   l      r(l)      h(i,j,l)

                   0    0.261295    0.622658    9.970227
                                    9.970227  -12.871507
                   1    0.224253  -11.142708   12.429566
                                   12.429566  -14.706861
                   2    0.215348  -12.628146


 MOLECULE KIND INFORMATION


 All atoms are their own molecule, skipping detailed information


 TOTAL NUMBERS AND MAXIMUM NUMBERS

  Total number of            - Atomic kinds:                                   2
                             - Atoms:                                         32
                             - Shell sets:                                    32
                             - Shells:                                       256
                             - Primitive Cartesian functions:                192
                             - Cartesian basis functions:                    992
                             - Spherical basis functions:                    832

  Maximum angular momentum of- Orbital basis functions:                        3
                             - Local part of the GTH pseudopotential:          2
                             - Non-local part of the GTH pseudopotential:      3


 MODULE QUICKSTEP: ATOMIC COORDINATES IN ANGSTROM

   Atom Kind Element         X             Y             Z       Z(eff)     Mass
      1    1 Ni   28      0.876298      0.876298      7.370500  18.0000  58.6934
      2    1 Ni   28      0.876298      4.382298      7.370500  18.0000  58.6934
      3    1 Ni   28      2.629298      2.629298      7.370500  18.0000  58.6934
      4    1 Ni   28      2.629298      6.135298      7.370500  18.0000  58.6934
      5    1 Ni   28      4.382298      0.876298      7.370500  18.0000  58.6934
      6    1 Ni   28      4.382298      4.382298      7.370500  18.0000  58.6934
      7    1 Ni   28      6.135298      2.629298      7.370500  18.0000  58.6934
      8    1 Ni   28      6.135298      6.135298      7.370500  18.0000  58.6934
      9    2 Ni   28      0.876298      2.629298      9.123500  18.0000  58.6934
     10    2 Ni   28      0.876298      6.135298      9.123500  18.0000  58.6934
     11    2 Ni   28      2.629298      0.876298      9.123500  18.0000  58.6934
     12    2 Ni   28      2.629298      4.382298      9.123500  18.0000  58.6934
     13    2 Ni   28      4.382298      2.629298      9.123500  18.0000  58.6934
     14    2 Ni   28      4.382298      6.135298      9.123500  18.0000  58.6934
     15    2 Ni   28      6.135298      0.876298      9.123500  18.0000  58.6934
     16    2 Ni   28      6.135298      4.382298      9.123500  18.0000  58.6934
     17    2 Ni   28      0.876298      0.876298     10.876500  18.0000  58.6934
     18    2 Ni   28      0.876298      4.382298     10.876500  18.0000  58.6934
     19    2 Ni   28      2.629298      2.629298     10.876500  18.0000  58.6934
     20    2 Ni   28      2.629298      6.135298     10.876500  18.0000  58.6934
     21    2 Ni   28      4.382298      0.876298     10.876500  18.0000  58.6934
     22    2 Ni   28      4.382298      4.382298     10.876500  18.0000  58.6934
     23    2 Ni   28      6.135298      2.629298     10.876500  18.0000  58.6934
     24    2 Ni   28      6.135298      6.135298     10.876500  18.0000  58.6934
     25    1 Ni   28      0.876298      2.629298     12.629500  18.0000  58.6934
     26    1 Ni   28      0.876298      6.135298     12.629500  18.0000  58.6934
     27    1 Ni   28      2.629298      0.876298     12.629500  18.0000  58.6934
     28    1 Ni   28      2.629298      4.382298     12.629500  18.0000  58.6934
     29    1 Ni   28      4.382298      2.629298     12.629500  18.0000  58.6934
     30    1 Ni   28      4.382298      6.135298     12.629500  18.0000  58.6934
     31    1 Ni   28      6.135298      0.876298     12.629500  18.0000  58.6934
     32    1 Ni   28      6.135298      4.382298     12.629500  18.0000  58.6934



 SCF PARAMETERS         Density guess:                                    ATOMIC
                        --------------------------------------------------------
                        max_scf:                                             500
                        max_scf_history:                                       0
                        max_diis:                                              4
                        --------------------------------------------------------
                        eps_scf:                                        1.00E-03
                        eps_scf_history:                                0.00E+00
                        eps_diis:                                       1.00E-01
                        eps_eigval:                                     1.00E-05
                        --------------------------------------------------------
                        level_shift [a.u.]:                             0.000000
                        added MOs                                       537  550
                        --------------------------------------------------------
                        Mixing method:                            BROYDEN_MIXING
                                                charge density mixing in g-space
                        --------------------------------------------------------
                        Smear method:                                FERMI_DIRAC
                        Electronic temperature [K]:                       2000.0
                        Electronic temperature [a.u.]:                  6.33E-03
                        Accuracy threshold:                             1.00E-10
                        --------------------------------------------------------
                        No outer SCF

 PW_GRID| Information for grid number                                          1
 PW_GRID| Grid distributed over                                   128 processors
 PW_GRID| Real space group dimensions                                     8   16
 PW_GRID| the grid is blocked:                                               YES
 PW_GRID| Cutoff [a.u.]                                                    300.0
 PW_GRID| spherical cutoff:                                                   NO
 PW_GRID|   Bounds   1            -54      53                Points:         108
 PW_GRID|   Bounds   2            -54      53                Points:         108
 PW_GRID|   Bounds   3           -150     149                Points:         300
 PW_GRID| Volume element (a.u.^3)  0.1896E-02     Volume (a.u.^3)      6635.2971
 PW_GRID| Grid span                                                    FULLSPACE
 PW_GRID|   Distribution                         Average         Max         Min
 PW_GRID|   G-Vectors                            27337.5       28728       25272
 PW_GRID|   G-Rays                                 253.1         266         234
 PW_GRID|   Real Space Points                    27337.5       28728       25272

 PW_GRID| Information for grid number                                          2
 PW_GRID| Number of the reference grid                                         1
 PW_GRID| Grid distributed over                                   128 processors
 PW_GRID| Real space group dimensions                                     8   16
 PW_GRID| the grid is blocked:                                                NO
 PW_GRID| Cutoff [a.u.]                                                    100.0
 PW_GRID| spherical cutoff:                                                   NO
 PW_GRID|   Bounds   1            -30      29                Points:          60
 PW_GRID|   Bounds   2            -30      29                Points:          60
 PW_GRID|   Bounds   3            -90      89                Points:         180
 PW_GRID| Volume element (a.u.^3)  0.1024E-01     Volume (a.u.^3)      6635.2971
 PW_GRID| Grid span                                                    FULLSPACE
 PW_GRID|   Distribution                         Average         Max         Min
 PW_GRID|   G-Vectors                             5062.5       15960           0
 PW_GRID|   G-Rays                                  84.4         266           0
 PW_GRID|   Real Space Points                     5062.5        5760        3780

 PW_GRID| Information for grid number                                          3
 PW_GRID| Number of the reference grid                                         1
 PW_GRID| Grid distributed over                                   128 processors
 PW_GRID| Real space group dimensions                                     8   16
 PW_GRID| the grid is blocked:                                                NO
 PW_GRID| Cutoff [a.u.]                                                     33.3
 PW_GRID| spherical cutoff:                                                   NO
 PW_GRID|   Bounds   1            -18      17                Points:          36
 PW_GRID|   Bounds   2            -18      17                Points:          36
 PW_GRID|   Bounds   3            -50      49                Points:         100
 PW_GRID| Volume element (a.u.^3)  0.5120E-01     Volume (a.u.^3)      6635.2971
 PW_GRID| Grid span                                                    FULLSPACE
 PW_GRID|   Distribution                         Average         Max         Min
 PW_GRID|   G-Vectors                             1012.5        9576           0
 PW_GRID|   G-Rays                                  28.1         266           0
 PW_GRID|   Real Space Points                     1012.5        1500         800

 PW_GRID| Information for grid number                                          4
 PW_GRID| Number of the reference grid                                         1
 PW_GRID| Grid distributed over                                   128 processors
 PW_GRID| Real space group dimensions                                     8   16
 PW_GRID| the grid is blocked:                                                NO
 PW_GRID| Cutoff [a.u.]                                                     11.1
 PW_GRID| spherical cutoff:                                                   NO
 PW_GRID|   Bounds   1            -10       9                Points:          20
 PW_GRID|   Bounds   2            -10       9                Points:          20
 PW_GRID|   Bounds   3            -30      29                Points:          60
 PW_GRID| Volume element (a.u.^3)  0.2765         Volume (a.u.^3)      6635.2971
 PW_GRID| Grid span                                                    FULLSPACE
 PW_GRID|   Distribution                         Average         Max         Min
 PW_GRID|   G-Vectors                              187.5        3800           0
 PW_GRID|   G-Rays                                   9.4         190           0
 PW_GRID|   Real Space Points                      187.5         360         120

 PW_GRID| Information for grid number                                          5
 PW_GRID| Number of the reference grid                                         1
 PW_GRID| Grid distributed over                                   128 processors
 PW_GRID| Real space group dimensions                                     8   16
 PW_GRID| the grid is blocked:                                                NO
 PW_GRID| Cutoff [a.u.]                                                      3.7
 PW_GRID| spherical cutoff:                                                   NO
 PW_GRID|   Bounds   1             -6       5                Points:          12
 PW_GRID|   Bounds   2             -6       5                Points:          12
 PW_GRID|   Bounds   3            -18      17                Points:          36
 PW_GRID| Volume element (a.u.^3)   1.280         Volume (a.u.^3)      6635.2971
 PW_GRID| Grid span                                                    FULLSPACE
 PW_GRID|   Distribution                         Average         Max         Min
 PW_GRID|   G-Vectors                               40.5        1296           0
 PW_GRID|   G-Rays                                   3.4         108           0
 PW_GRID|   Real Space Points                       40.5          72           0

 POISSON| Solver                                                        PERIODIC
 POISSON| Periodicity                                                        XYZ

 RS_GRID| Information for grid number                                          1
 RS_GRID|   Bounds   1            -54      53                Points:         108
 RS_GRID|   Bounds   2            -54      53                Points:         108
 RS_GRID|   Bounds   3           -150     149                Points:         300
 RS_GRID| Real space distribution over                                  8 groups
 RS_GRID| Real space distribution along direction                              2
 RS_GRID| Border size                                                         28
 RS_GRID| Real space distribution over                                 16 groups
 RS_GRID| Real space distribution along direction                              3
 RS_GRID| Border size                                                         28
 RS_GRID|   Distribution                         Average         Max         Min
 RS_GRID|   Planes                                  69.5          70          69
 RS_GRID|   Distribution                         Average         Max         Min
 RS_GRID|   Planes                                  74.8          75          74

 RS_GRID| Information for grid number                                          2
 RS_GRID|   Bounds   1            -30      29                Points:          60
 RS_GRID|   Bounds   2            -30      29                Points:          60
 RS_GRID|   Bounds   3            -90      89                Points:         180
 RS_GRID| Real space fully replicated
 RS_GRID| Group size                                                           1

 RS_GRID| Information for grid number                                          3
 RS_GRID|   Bounds   1            -18      17                Points:          36
 RS_GRID|   Bounds   2            -18      17                Points:          36
 RS_GRID|   Bounds   3            -50      49                Points:         100
 RS_GRID| Real space fully replicated
 RS_GRID| Group size                                                           1

 RS_GRID| Information for grid number                                          4
 RS_GRID|   Bounds   1            -10       9                Points:          20
 RS_GRID|   Bounds   2            -10       9                Points:          20
 RS_GRID|   Bounds   3            -30      29                Points:          60
 RS_GRID| Real space fully replicated
 RS_GRID| Group size                                                           1

 RS_GRID| Information for grid number                                          5
 RS_GRID|   Bounds   1             -6       5                Points:          12
 RS_GRID|   Bounds   2             -6       5                Points:          12
 RS_GRID|   Bounds   3            -18      17                Points:          36
 RS_GRID| Real space fully replicated
 RS_GRID| Group size                                                           1

 Spin 1

 Number of electrons:                                                        294.480
 Number of occupied orbitals:                                                295
 Number of molecular orbitals:                                               832

 Spin 2

 Number of electrons:                                                        281.520
 Number of occupied orbitals:                                                282
 Number of molecular orbitals:                                               832

 Number of orbital functions:                                                832
 Number of independent orbital functions:                                    832

 Extrapolation method: initial_guess

 Atomic guess: The first density matrix is obtained in terms of atomic orbitals
               and electronic configurations assigned to each atomic kind

 Guess for atomic kind: Ni_i

 Electronic structure
    Total number of core electrons                                         10.00
    Total number of valence electrons                                      18.00
    Total number of electrons                                              28.00
    Multiplicity                                                         doublet
    Alpha Electrons
    S   [  1.00  1.00] 1.00  1.00
    P   [  3.00] 3.00
    D      4.30
    Beta Electrons
    S   [  1.00  1.00] 1.00  1.00
    P   [  3.00] 3.00
    D      3.70


 *******************************************************************************
                  Iteration          Convergence                     Energy [au]
 *******************************************************************************
                          1         1.51708                    -167.066118163909
                          2         15.1863                    -156.630620063797
                          3         2.29518                    -168.318250074867
                          4        0.198051                    -168.608832938310
                          5        0.762142E-01                -168.611735578094
                          6        0.143308E-01                -168.612261389358
                          7        0.453828E-02                -168.612313512258
                          8        0.436836E-02                -168.612313369107
                          9        0.696306E-03                -168.612315351147
                         10        0.226261E-02                -168.612315025774
                         11        0.995757E-03                -168.612315268998
                         12        0.170432E-03                -168.612315393602
                         13        0.195344E-03                -168.612315392852
                         14        0.147467E-03                -168.612315396817
                         15        0.185080E-03                -168.612315392680
                         16        0.969041E-04                -168.612315398729
                         17        0.991109E-04                -168.612315398505
                         18        0.433236E-04                -168.612315399326
                         19        0.269198E-04                -168.612315399408
                         20        0.109432E-04                -168.612315399455
                         21        0.443439E-05                -168.612315399480
                         22        0.816741E-05                -168.612315399471
                         23        0.470984E-05                -168.612315399481
                         24        0.245833E-05                -168.612315399483
                         25        0.100766E-05                -168.612315399484
                         26        0.417991E-06                -168.612315399483

 Energy components [Hartree]           Total Energy ::         -168.612315399483
                                        Band Energy ::          -26.569179124340
                                     Kinetic Energy ::           97.305065650248
                                   Potential Energy ::         -265.917381049731
                                      Virial (-V/T) ::            2.732821557364
                                        Core Energy ::         -299.567011526383
                                          XC Energy ::          -16.225783039068
                                     Coulomb Energy ::          147.180479165968
                       Total Pseudopotential Energy ::         -396.958417944166
                       Local Pseudopotential Energy ::         -362.646534962999
                    Nonlocal Pseudopotential Energy ::          -34.311882981167
                                        Confinement ::            0.863407675347

 Orbital energies  State     Spin  L     Occupation   Energy[a.u.]    Energy[eV]

                       1    alpha  0          1.000      -4.170511   -113.485387
                       2    alpha  0          1.000      -0.181081     -4.927469
                       1     beta  0          1.000      -4.143060   -112.738394
                       2     beta  0          1.000      -0.176746     -4.809500

                       1    alpha  1          3.000      -2.576642    -70.114003
                       1     beta  1          3.000      -2.549934    -69.387228

                       1    alpha  2          4.300      -0.325251     -8.850518
                       1     beta  2          3.700      -0.302561     -8.233099


 Total Electron Density at R=0:                                         0.030426

 Guess for atomic kind: Ni_b

 Electronic structure
    Total number of core electrons                                         10.00
    Total number of valence electrons                                      18.00
    Total number of electrons                                              28.00
    Multiplicity                                                         singlet
    Alpha Electrons
    S   [  1.00  1.00] 1.00  1.00
    P   [  3.00] 3.00
    D      4.11
    Beta Electrons
    S   [  1.00  1.00] 1.00  1.00
    P   [  3.00] 3.00
    D      3.90


 *******************************************************************************
                  Iteration          Convergence                     Energy [au]
 *******************************************************************************
                          1         1.51624                    -167.062943818962
                          2         14.3853                    -156.601345162267
                          3         2.14002                    -168.315545931368
                          4        0.162752                    -168.606229330260
                          5        0.546071E-01                -168.608972730607
                          6        0.640061E-02                -168.609322106215
                          7        0.353521E-02                -168.609327254131
                          8        0.355117E-02                -168.609327591413
                          9        0.850138E-03                -168.609328676964
                         10        0.762693E-03                -168.609328744734
                         11        0.566010E-03                -168.609328738871
                         12        0.849919E-03                -168.609328737932
                         13        0.462893E-03                -168.609328777600
                         14        0.306248E-03                -168.609328791026
                         15        0.204562E-03                -168.609328796543
                         16        0.244546E-03                -168.609328801443
                         17        0.380007E-03                -168.609328795380
                         18        0.289381E-03                -168.609328799635
                         19        0.210212E-03                -168.609328802573
                         20        0.933467E-04                -168.609328805366
                         21        0.116485E-03                -168.609328806029
                         22        0.116704E-03                -168.609328806047
                         23        0.125713E-03                -168.609328805885
                         24        0.124727E-03                -168.609328805897
                         25        0.107657E-03                -168.609328806211
                         26        0.816821E-04                -168.609328806776
                         27        0.525353E-04                -168.609328807153
                         28        0.523680E-04                -168.609328807154
                         29        0.528962E-04                -168.609328807149
                         30        0.535419E-04                -168.609328807144
                         31        0.556039E-04                -168.609328807126
                         32        0.350578E-04                -168.609328807277
                         33        0.212296E-04                -168.609328807359
                         34        0.212579E-04                -168.609328807359
                         35        0.212761E-04                -168.609328807359
                         36        0.212516E-04                -168.609328807359
                         37        0.167359E-04                -168.609328807373
                         38        0.390489E-05                -168.609328807401
                         39        0.258753E-05                -168.609328807402
                         40        0.283670E-05                -168.609328807403
                         41        0.295012E-05                -168.609328807403
                         42        0.343572E-05                -168.609328807403
                         43        0.187083E-05                -168.609328807403
                         44        0.158251E-05                -168.609328807403
                         45        0.106215E-05                -168.609328807404
                         46        0.407693E-06                -168.609328807403

 Energy components [Hartree]           Total Energy ::         -168.609328807403
                                        Band Energy ::          -26.567743014255
                                     Kinetic Energy ::           97.301030584152
                                   Potential Energy ::         -265.910359391555
                                      Virial (-V/T) ::            2.732862722986
                                        Core Energy ::         -299.564654088411
                                          XC Energy ::          -16.222365374849
                                     Coulomb Energy ::          147.177690655857
                       Total Pseudopotential Energy ::         -396.952024991954
                       Local Pseudopotential Energy ::         -362.642256869511
                    Nonlocal Pseudopotential Energy ::          -34.309768122443
                                        Confinement ::            0.863403193913

 Orbital energies  State     Spin  L     Occupation   Energy[a.u.]    Energy[eV]

                       1    alpha  0          1.000      -4.161910   -113.251336
                       2    alpha  0          1.000      -0.179701     -4.889904
                       1     beta  0          1.000      -4.152302   -112.989892
                       2     beta  0          1.000      -0.178184     -4.848622

                       1    alpha  1          3.000      -2.568273    -69.886273
                       1     beta  1          3.000      -2.558926    -69.631906

                       1    alpha  2          4.105      -0.318123     -8.656562
                       1     beta  2          3.895      -0.310181     -8.440456


 Total Electron Density at R=0:                                         0.030435

 Spin 1
 Re-scaling the density matrix to get the right number of electrons for spin 1
                  # Electrons              Trace(P)               Scaling factor
                        294.480             294.480                        1.000

 Spin 2
[...]
   119 Broy./Diag. 0.80E-01    1.5     0.02610885     -5416.9489262408  1.53E-01
   120 Broy./Diag. 0.80E-01    1.5     0.00709080     -5416.7531245154  1.96E-01
   121 Broy./Diag. 0.80E-01    1.5     0.02049359     -5416.8840814697 -1.31E-01
   122 Broy./Diag. 0.80E-01    1.5     0.00206600     -5416.9501649726 -6.61E-02
   123 Broy./Diag. 0.80E-01    1.5     0.06284211     -5416.8377005547  1.12E-01
   124 Broy./Diag. 0.80E-01    1.5     0.01569812     -5417.5475045062 -7.10E-01
   125 Broy./Diag. 0.80E-01    1.5     0.01986212     -5418.0501196088 -5.03E-01
   126 Broy./Diag. 0.80E-01    1.5     0.00877917     -5417.5610861853  4.89E-01
   127 Broy./Diag. 0.80E-01    1.5     0.06356574     -5417.6726194662 -1.12E-01
   128 Broy./Diag. 0.80E-01    1.5     0.01851051     -5417.2658009201  4.07E-01
   129 Broy./Diag. 0.80E-01    1.5     0.04289540     -5417.5042751224 -2.38E-01
   130 Broy./Diag. 0.80E-01    1.5     0.00216399     -5417.8315190784 -3.27E-01
   131 Broy./Diag. 0.80E-01    1.5     0.01756790     -5417.5226964815  3.09E-01
   132 Broy./Diag. 0.80E-01    1.5     0.04181865     -5416.8203890906  7.02E-01
   133 Broy./Diag. 0.80E-01    1.5     0.05038715     -5417.4220926908 -6.02E-01
   134 Broy./Diag. 0.80E-01    1.5     0.01519690     -5417.4814163191 -5.93E-02
   135 Broy./Diag. 0.80E-01    1.5     0.02961569     -5417.7182037007 -2.37E-01
   136 Broy./Diag. 0.80E-01    1.5     0.06452884     -5417.7656023698 -4.74E-02
   137 Broy./Diag. 0.80E-01    1.5     0.02140471     -5416.9405537003  8.25E-01
   138 Broy./Diag. 0.80E-01    1.5     0.02140992     -5417.0476487514 -1.07E-01
   139 Broy./Diag. 0.80E-01    1.5     0.01608306     -5416.6747962748  3.73E-01
   140 Broy./Diag. 0.80E-01    1.5     0.00405351     -5416.7083256605 -3.35E-02
   141 Broy./Diag. 0.80E-01    1.5     0.02634114     -5417.0135361381 -3.05E-01
   142 Broy./Diag. 0.80E-01    1.5     0.00286266     -5416.9678957734  4.56E-02
   143 Broy./Diag. 0.80E-01    1.5     0.01081569     -5416.9317735755  3.61E-02
   144 Broy./Diag. 0.80E-01    1.5     0.00629257     -5416.8602743371  7.15E-02
   145 Broy./Diag. 0.80E-01    1.5     0.06749733     -5417.0441154797 -1.84E-01
   146 Broy./Diag. 0.80E-01    1.5     0.00589017     -5415.6744311604  1.37E+00
   147 Broy./Diag. 0.80E-01    1.5     0.03751153     -5415.6495362783  2.49E-02
   148 Broy./Diag. 0.80E-01    1.5     0.00802643     -5417.0661827373 -1.42E+00
   149 Broy./Diag. 0.80E-01    1.5     0.01502250     -5415.9351765244  1.13E+00
   150 Broy./Diag. 0.80E-01    1.5     0.00728316     -5415.5510197584  3.84E-01
   151 Broy./Diag. 0.80E-01    1.5     0.01034629     -5416.2761975092 -7.25E-01
   152 Broy./Diag. 0.80E-01    1.5     0.00245696     -5416.7154286501 -4.39E-01
   153 Broy./Diag. 0.80E-01    1.5     0.00633780     -5416.0684407249  6.47E-01
   154 Broy./Diag. 0.80E-01    1.5     0.01676573     -5416.1873276006 -1.19E-01
   155 Broy./Diag. 0.80E-01    1.5     0.02335354     -5420.6906804714 -4.50E+00
   156 Broy./Diag. 0.80E-01    1.5     0.01501678     -5421.8069259749 -1.12E+00
   157 Broy./Diag. 0.80E-01    1.5     0.00874585     -5421.1995504989  6.07E-01
   158 Broy./Diag. 0.80E-01    1.5     0.01174509     -5419.5378260327  1.66E+00
   159 Broy./Diag. 0.80E-01    1.5     0.02847334     -5417.4426231723  2.10E+00
   160 Broy./Diag. 0.80E-01    1.5     0.00605702     -5417.7734856059 -3.31E-01
   161 Broy./Diag. 0.80E-01    1.5     0.00937229     -5417.5734490137  2.00E-01
   162 Broy./Diag. 0.80E-01    1.5     0.00919983     -5417.7333258284 -1.60E-01
   163 Broy./Diag. 0.80E-01    1.5     0.02363522     -5415.6033713038  2.13E+00
   164 Broy./Diag. 0.80E-01    1.5     0.03551408     -5417.0582561871 -1.45E+00
   165 Broy./Diag. 0.80E-01    1.5     0.04819972     -5413.5779843699  3.48E+00
   166 Broy./Diag. 0.80E-01    1.5     0.01598587     -5414.1644194186 -5.86E-01
   167 Broy./Diag. 0.80E-01    1.5     0.00367043     -5414.1414508712  2.30E-02
   168 Broy./Diag. 0.80E-01    1.5     0.01398976     -5414.2059361997 -6.45E-02
   169 Broy./Diag. 0.80E-01    1.5     0.00984862     -5414.2210587993 -1.51E-02
   170 Broy./Diag. 0.80E-01    1.5     0.02578077     -5413.5140045436  7.07E-01
   171 Broy./Diag. 0.80E-01    1.5     0.02138858     -5414.4143456219 -9.00E-01
   172 Broy./Diag. 0.80E-01    1.5     0.02753874     -5415.7642186881 -1.35E+00
   173 Broy./Diag. 0.80E-01    1.5     0.03899425     -5416.7191012423 -9.55E-01
   174 Broy./Diag. 0.80E-01    1.5     0.01516674     -5415.9663509843  7.53E-01
   175 Broy./Diag. 0.80E-01    1.5     0.01353395     -5416.4347891496 -4.68E-01
   176 Broy./Diag. 0.80E-01    1.5     0.02456161     -5416.7430505532 -3.08E-01
   177 Broy./Diag. 0.80E-01    1.5     0.01067870     -5415.7768571237  9.66E-01
   178 Broy./Diag. 0.80E-01    1.5     0.00663263     -5416.2848369952 -5.08E-01
   179 Broy./Diag. 0.80E-01    1.5     0.02349828     -5415.2729338327  1.01E+00
   180 Broy./Diag. 0.80E-01    1.5     0.01593521     -5411.1589548827  4.11E+00
   181 Broy./Diag. 0.80E-01    1.5     0.00695017     -5412.8338992215 -1.67E+00
   182 Broy./Diag. 0.80E-01    1.5     0.02796710     -5415.2955605705 -2.46E+00
   183 Broy./Diag. 0.80E-01    1.5     0.02684173     -5415.2086982429  8.69E-02
   184 Broy./Diag. 0.80E-01    1.5     0.03200649     -5420.0210899100 -4.81E+00
   185 Broy./Diag. 0.80E-01    1.5     0.02605912     -5420.7541924985 -7.33E-01
   186 Broy./Diag. 0.80E-01    1.5     0.02209280     -5418.5194360162  2.23E+00
   187 Broy./Diag. 0.80E-01    1.5     0.04467817     -5416.8894571835  1.63E+00
   188 Broy./Diag. 0.80E-01    1.5     0.06499350     -5416.2238819161  6.66E-01
   189 Broy./Diag. 0.80E-01    1.5     0.04667641     -5411.8923020309  4.33E+00
   190 Broy./Diag. 0.80E-01    1.5     0.04045611     -5411.3570419076  5.35E-01
   191 Broy./Diag. 0.80E-01    1.5     0.09059005     -5410.6886081597  6.68E-01
   192 Broy./Diag. 0.80E-01    1.5     0.08648833     -5413.4852860430 -2.80E+00
   193 Broy./Diag. 0.80E-01    1.5     0.04596453     -5412.2920978853  1.19E+00
   194 Broy./Diag. 0.80E-01    1.5     0.02131531     -5411.7146087929  5.77E-01
   195 Broy./Diag. 0.80E-01    1.5     0.01162406     -5412.6173539740 -9.03E-01
   196 Broy./Diag. 0.80E-01    1.5     0.01198251     -5414.0658163425 -1.45E+00
   197 Broy./Diag. 0.80E-01    1.5     0.05282727     -5413.0967694373  9.69E-01
   198 Broy./Diag. 0.80E-01    1.5     0.03792077     -5416.0071819678 -2.91E+00
   199 Broy./Diag. 0.80E-01    1.5     0.09240235     -5416.2108783880 -2.04E-01
   200 Broy./Diag. 0.80E-01    1.5     0.03308273     -5415.7410318443  4.70E-01
   201 Broy./Diag. 0.80E-01    1.5     0.02009620     -5415.3425875051  3.98E-01
   202 Broy./Diag. 0.80E-01    1.5     0.00518251     -5415.9982326774 -6.56E-01
   203 Broy./Diag. 0.80E-01    1.5     0.02910389     -5416.3948870065 -3.97E-01
   204 Broy./Diag. 0.80E-01    1.5     0.03275551     -5417.2927646144 -8.98E-01
   205 Broy./Diag. 0.80E-01    1.5     0.03384107     -5418.3065516687 -1.01E+00
   206 Broy./Diag. 0.80E-01    1.5     0.03251566     -5416.9348478578  1.37E+00
   207 Broy./Diag. 0.80E-01    1.5     0.03200098     -5417.0908191474 -1.56E-01
   208 Broy./Diag. 0.80E-01    1.5     0.03286648     -5416.8073803067  2.83E-01
   209 Broy./Diag. 0.80E-01    1.5     0.01717563     -5416.8292921233 -2.19E-02
   210 Broy./Diag. 0.80E-01    1.5     0.01999259     -5416.9479086054 -1.19E-01
   211 Broy./Diag. 0.80E-01    1.5     0.02408936     -5416.7805573728  1.67E-01
   212 Broy./Diag. 0.80E-01    1.5     0.04207684     -5416.6824969844  9.81E-02
   213 Broy./Diag. 0.80E-01    1.5     0.01955042     -5416.9832086296 -3.01E-01
   214 Broy./Diag. 0.80E-01    1.5     0.01526778     -5417.5026129849 -5.19E-01
   215 Broy./Diag. 0.80E-01    1.5     0.06610416     -5417.1807749711  3.22E-01
   216 Broy./Diag. 0.80E-01    1.5     0.08510257     -5416.8392694736  3.42E-01
   217 Broy./Diag. 0.80E-01    1.5     0.04286684     -5417.0427173127 -2.03E-01
   218 Broy./Diag. 0.80E-01    1.5     0.04964200     -5417.0814493315 -3.87E-02
   219 Broy./Diag. 0.80E-01    1.5     0.02140477     -5415.7505882402  1.33E+00
   220 Broy./Diag. 0.80E-01    1.5     0.01121520     -5413.4632326251  2.29E+00
   221 Broy./Diag. 0.80E-01    1.5     0.01370558     -5412.9754514762  4.88E-01
   222 Broy./Diag. 0.80E-01    1.5     0.01603021     -5413.4386401272 -4.63E-01
   223 Broy./Diag. 0.80E-01    1.5     0.10959073     -5414.0537618266 -6.15E-01
   224 Broy./Diag. 0.80E-01    1.5     0.07261884     -5412.3307928520  1.72E+00
   225 Broy./Diag. 0.80E-01    1.5     0.02209428     -5413.9663670875 -1.64E+00
   226 Broy./Diag. 0.80E-01    1.5     0.02870610     -5414.0249151382 -5.85E-02
   227 Broy./Diag. 0.80E-01    1.5     0.03887119     -5414.9269882922 -9.02E-01
   228 Broy./Diag. 0.80E-01    1.5     0.01651419     -5414.3001071155  6.27E-01
   229 Broy./Diag. 0.80E-01    1.5     0.01408313     -5414.5495623241 -2.49E-01
   230 Broy./Diag. 0.80E-01    1.5     0.02835347     -5414.6116659047 -6.21E-02
   231 Broy./Diag. 0.80E-01    1.5     0.02982803     -5414.4824981369  1.29E-01
   232 Broy./Diag. 0.80E-01    1.5     0.04247763     -5416.4212032599 -1.94E+00
   233 Broy./Diag. 0.80E-01    1.5     0.05743726     -5414.2020935152  2.22E+00
   234 Broy./Diag. 0.80E-01    1.5     0.05741257     -5415.4772576722 -1.28E+00
   235 Broy./Diag. 0.80E-01    1.5     0.02791790     -5413.8680215851  1.61E+00
   236 Broy./Diag. 0.80E-01    1.5     0.08232190     -5415.6700329193 -1.80E+00
   237 Broy./Diag. 0.80E-01    1.5     0.01429529     -5412.7050294625  2.97E+00
   238 Broy./Diag. 0.80E-01    1.5     0.06793912     -5413.3574230050 -6.52E-01
   239 Broy./Diag. 0.80E-01    1.5     0.16499314     -5416.0219714080 -2.66E+00
   240 Broy./Diag. 0.80E-01    1.5     0.03883440     -5414.8433600836  1.18E+00
   241 Broy./Diag. 0.80E-01    1.5     0.10721706     -5416.2375490204 -1.39E+00
   242 Broy./Diag. 0.80E-01    1.5     0.10383637     -5416.3862104224 -1.49E-01
   243 Broy./Diag. 0.80E-01    1.5     0.05508758     -5416.2982571475  8.80E-02
   244 Broy./Diag. 0.80E-01    1.5     0.09506781     -5416.2272368896  7.10E-02
   245 Broy./Diag. 0.80E-01    1.5     0.08367147     -5414.9937305808  1.23E+00
   246 Broy./Diag. 0.80E-01    1.5     0.06229944     -5418.6619040759 -3.67E+00
   247 Broy./Diag. 0.80E-01    1.5     0.02348489     -5417.6073948727  1.05E+00
   248 Broy./Diag. 0.80E-01    1.5     0.08056394     -5418.1607802867 -5.53E-01
   249 Broy./Diag. 0.80E-01    1.5     0.07387689     -5418.6625675519 -5.02E-01
   250 Broy./Diag. 0.80E-01    1.5     0.14971070     -5418.6655074646 -2.94E-03
   251 Broy./Diag. 0.80E-01    1.5     0.08950520     -5417.7697877529  8.96E-01
   252 Broy./Diag. 0.80E-01    1.5     0.10432013     -5417.3415457083  4.28E-01
   253 Broy./Diag. 0.80E-01    1.5     0.08164216     -5417.2893379819  5.22E-02
   254 Broy./Diag. 0.80E-01    1.5     0.05930929     -5418.2159527878 -9.27E-01
   255 Broy./Diag. 0.80E-01    1.5     0.04125556     -5419.3437019080 -1.13E+00
   256 Broy./Diag. 0.80E-01    1.5     0.10802831     -5419.0274751847  3.16E-01
   257 Broy./Diag. 0.80E-01    1.5     0.06092803     -5411.6231183423  7.40E+00
   258 Broy./Diag. 0.80E-01    1.5     0.12007680     -5412.8296991396 -1.21E+00
   259 Broy./Diag. 0.80E-01    1.5     0.03325864     -5413.8225391524 -9.93E-01
   260 Broy./Diag. 0.80E-01    1.5     0.09934172     -5416.4442974733 -2.62E+00
   261 Broy./Diag. 0.80E-01    1.5     0.06426644     -5418.2164905433 -1.77E+00
   262 Broy./Diag. 0.80E-01    1.5     0.05777556     -5417.5908514332  6.26E-01
   263 Broy./Diag. 0.80E-01    1.5     0.03391527     -5416.2178692563  1.37E+00
   264 Broy./Diag. 0.80E-01    1.5     0.05509077     -5418.7319839796 -2.51E+00
   265 Broy./Diag. 0.80E-01    1.5     0.05609192     -5419.9856754294 -1.25E+00
   266 Broy./Diag. 0.80E-01    1.5     0.05085824     -5419.7122013310  2.73E-01
   267 Broy./Diag. 0.80E-01    1.5     0.09540285     -5417.5178243566  2.19E+00
   268 Broy./Diag. 0.80E-01    1.5     0.08563358     -5418.2088462400 -6.91E-01
   269 Broy./Diag. 0.80E-01    1.5     0.06108877     -5421.1780070980 -2.97E+00
   270 Broy./Diag. 0.80E-01    1.5     0.01377076     -5419.7698170202  1.41E+00
   271 Broy./Diag. 0.80E-01    1.5     0.09015738     -5419.9162413274 -1.46E-01
   272 Broy./Diag. 0.80E-01    1.5     0.03068519     -5417.3191733056  2.60E+00
   273 Broy./Diag. 0.80E-01    1.5     0.02111618     -5413.6948102694  3.62E+00
   274 Broy./Diag. 0.80E-01    1.5     0.05243352     -5414.7056523583 -1.01E+00
   275 Broy./Diag. 0.80E-01    1.5     0.04605475     -5413.6612777557  1.04E+00
   276 Broy./Diag. 0.80E-01    1.5     0.07413645     -5413.8182623833 -1.57E-01
   277 Broy./Diag. 0.80E-01    1.5     0.08034448     -5416.4590905567 -2.64E+00
   278 Broy./Diag. 0.80E-01    1.5     0.03538236     -5416.7989102736 -3.40E-01
   279 Broy./Diag. 0.80E-01    1.5     0.06789732     -5417.8466987216 -1.05E+00
   280 Broy./Diag. 0.80E-01    1.5     0.04217498     -5414.6868112585  3.16E+00
   281 Broy./Diag. 0.80E-01    1.5     0.03912470     -5416.4136222301 -1.73E+00
   282 Broy./Diag. 0.80E-01    1.5     0.06114260     -5418.0513372331 -1.64E+00
   283 Broy./Diag. 0.80E-01    1.5     0.00911816     -5414.6978425556  3.35E+00
   284 Broy./Diag. 0.80E-01    1.5     0.03681704     -5416.0692122867 -1.37E+00
   285 Broy./Diag. 0.80E-01    1.5     0.04300009     -5417.0467718367 -9.78E-01
   286 Broy./Diag. 0.80E-01    1.5     0.09625885     -5418.0073739415 -9.61E-01
   287 Broy./Diag. 0.80E-01    1.5     0.04009173     -5415.4575701743  2.55E+00
   288 Broy./Diag. 0.80E-01    1.5     0.02328987     -5417.4576475243 -2.00E+00
   289 Broy./Diag. 0.80E-01    1.6     0.06832487     -5417.6600148620 -2.02E-01
   290 Broy./Diag. 0.80E-01    1.5     0.03780551     -5416.2612045351  1.40E+00
   291 Broy./Diag. 0.80E-01    1.5     0.04826983     -5415.5790835180  6.82E-01
   292 Broy./Diag. 0.80E-01    1.5     0.10058403     -5416.2317667958 -6.53E-01
   293 Broy./Diag. 0.80E-01    1.5     0.06255930     -5413.3860323084  2.85E+00
   294 Broy./Diag. 0.80E-01    1.5     0.04729047     -5417.0258246193 -3.64E+00
   295 Broy./Diag. 0.80E-01    1.5     0.06218538     -5417.6593769957 -6.34E-01
   296 Broy./Diag. 0.80E-01    1.5     0.04998205     -5416.3338147326  1.33E+00
   297 Broy./Diag. 0.80E-01    1.5     0.05648742     -5415.2154078864  1.12E+00
   298 Broy./Diag. 0.80E-01    1.5     0.13130223     -5413.5231556402  1.69E+00
   299 Broy./Diag. 0.80E-01    1.5     0.04171722     -5417.9211520493 -4.40E+00
   300 Broy./Diag. 0.80E-01    1.5     0.07963254     -5417.6924848272  2.29E-01
   301 Broy./Diag. 0.80E-01    1.5     0.04096268     -5416.5381103383  1.15E+00
   302 Broy./Diag. 0.80E-01    1.5     0.02845391     -5415.9301881476  6.08E-01
   303 Broy./Diag. 0.80E-01    1.5     0.04652162     -5415.9498838200 -1.97E-02
   304 Broy./Diag. 0.80E-01    1.5     0.05885589     -5415.2658373003  6.84E-01
   305 Broy./Diag. 0.80E-01    1.5     0.10297609     -5411.6078048938  3.66E+00
   306 Broy./Diag. 0.80E-01    1.5     0.05346774     -5410.1708366139  1.44E+00
   307 Broy./Diag. 0.80E-01    1.5     0.04662292     -5410.7722441556 -6.01E-01
   308 Broy./Diag. 0.80E-01    1.5     0.06748733     -5412.7345629658 -1.96E+00
   309 Broy./Diag. 0.80E-01    1.5     0.07809878     -5415.4956624180 -2.76E+00
   310 Broy./Diag. 0.80E-01    1.5     0.12475115     -5416.5480312041 -1.05E+00
   311 Broy./Diag. 0.80E-01    1.5     0.02896939     -5415.1834318915  1.36E+00
   312 Broy./Diag. 0.80E-01    1.5     0.03722800     -5414.6422120998  5.41E-01
   313 Broy./Diag. 0.80E-01    1.5     0.19580675     -5414.5265182402  1.16E-01
   314 Broy./Diag. 0.80E-01    1.5     0.14602998     -5414.6703469160 -1.44E-01
   315 Broy./Diag. 0.80E-01    1.5     0.05130880     -5415.9800118299 -1.31E+00
   316 Broy./Diag. 0.80E-01    1.5     0.22926286     -5417.7579685176 -1.78E+00
   317 Broy./Diag. 0.80E-01    1.5     0.10378172     -5416.0017966221  1.76E+00
   318 Broy./Diag. 0.80E-01    1.5     0.02045253     -5415.5088822281  4.93E-01
   319 Broy./Diag. 0.80E-01    1.5     0.17496612     -5415.0973490648  4.12E-01
   320 Broy./Diag. 0.80E-01    1.5     0.09978600     -5416.3685909936 -1.27E+00
   321 Broy./Diag. 0.80E-01    1.5     0.01702321     -5416.3855251118 -1.69E-02
   322 Broy./Diag. 0.80E-01    1.5     0.03391785     -5416.0993039155  2.86E-01
   323 Broy./Diag. 0.80E-01    1.5     0.01606797     -5416.5531964058 -4.54E-01
   324 Broy./Diag. 0.80E-01    1.5     0.03078586     -5417.0974608044 -5.44E-01
   325 Broy./Diag. 0.80E-01    1.5     0.06910229     -5416.2297441732  8.68E-01
   326 Broy./Diag. 0.80E-01    1.5     0.04174138     -5418.2432586923 -2.01E+00
   327 Broy./Diag. 0.80E-01    1.5     0.15164995     -5419.5887677868 -1.35E+00
   328 Broy./Diag. 0.80E-01    1.5     0.05743305     -5419.2477514799  3.41E-01
   329 Broy./Diag. 0.80E-01    1.5     0.04038619     -5417.2390141515  2.01E+00
   330 Broy./Diag. 0.80E-01    1.5     0.04364847     -5417.5682647403 -3.29E-01
   331 Broy./Diag. 0.80E-01    1.5     0.05437242     -5416.8162425877  7.52E-01
   332 Broy./Diag. 0.80E-01    1.5     0.03379494     -5416.4361851022  3.80E-01
   333 Broy./Diag. 0.80E-01    1.5     0.00891695     -5416.7195434765 -2.83E-01
   334 Broy./Diag. 0.80E-01    1.5     0.02095609     -5417.2274698315 -5.08E-01
   335 Broy./Diag. 0.80E-01    1.5     0.03836196     -5417.8570116860 -6.30E-01
   336 Broy./Diag. 0.80E-01    1.5     0.08243842     -5417.4450614703  4.12E-01
   337 Broy./Diag. 0.80E-01    1.5     0.03045281     -5417.8819688806 -4.37E-01
   338 Broy./Diag. 0.80E-01    1.5     0.05706264     -5417.6921320120  1.90E-01
   339 Broy./Diag. 0.80E-01    1.5     0.03943054     -5418.2571844753 -5.65E-01
   340 Broy./Diag. 0.80E-01    1.5     0.08274880     -5417.8797951819  3.77E-01
   341 Broy./Diag. 0.80E-01    1.5     0.04222865     -5417.7126130270  1.67E-01
   342 Broy./Diag. 0.80E-01    1.5     0.05626236     -5417.5341459106  1.78E-01
   343 Broy./Diag. 0.80E-01    1.5     0.06060229     -5418.2962745653 -7.62E-01
   344 Broy./Diag. 0.80E-01    1.5     0.04139874     -5417.9718420251  3.24E-01
   345 Broy./Diag. 0.80E-01    1.5     0.03808097     -5417.7215696615  2.50E-01
   346 Broy./Diag. 0.80E-01    1.5     0.06583699     -5417.7034889414  1.81E-02
   347 Broy./Diag. 0.80E-01    1.5     0.01555158     -5417.8596414165 -1.56E-01
   348 Broy./Diag. 0.80E-01    1.5     0.13405892     -5417.8118504161  4.78E-02
   349 Broy./Diag. 0.80E-01    1.5     0.15544531     -5415.7730711936  2.04E+00
   350 Broy./Diag. 0.80E-01    1.5     0.16333706     -5417.7164013654 -1.94E+00
   351 Broy./Diag. 0.80E-01    1.5     0.05171797     -5414.9727563600  2.74E+00
   352 Broy./Diag. 0.80E-01    1.5     0.12844515     -5413.0767738844  1.90E+00
   353 Broy./Diag. 0.80E-01    1.5     0.09974204     -5416.2912791437 -3.21E+00
   354 Broy./Diag. 0.80E-01    1.5     0.16309190     -5414.2065371475  2.08E+00
   355 Broy./Diag. 0.80E-01    1.5     0.12931098     -5415.9845323702 -1.78E+00
   356 Broy./Diag. 0.80E-01    1.5     0.09727453     -5415.1375367016  8.47E-01
   357 Broy./Diag. 0.80E-01    1.5     0.04819370     -5414.6077732766  5.30E-01
   358 Broy./Diag. 0.80E-01    1.5     0.09362598     -5415.9793713711 -1.37E+00
   359 Broy./Diag. 0.80E-01    1.5     0.12654997     -5415.8392189628  1.40E-01
   360 Broy./Diag. 0.80E-01    1.5     0.18340836     -5417.9406368261 -2.10E+00
   361 Broy./Diag. 0.80E-01    1.5     0.04727878     -5414.2420514439  3.70E+00
   362 Broy./Diag. 0.80E-01    1.5     0.12186567     -5413.0189619109  1.22E+00
   363 Broy./Diag. 0.80E-01    1.5     0.06569007     -5409.0191026213  4.00E+00
   364 Broy./Diag. 0.80E-01    1.5     0.16531229     -5411.4088657654 -2.39E+00
