 DBCSR| CPU Multiplication driver                                           XSMM (U)
 DBCSR| Multrec recursion limit                                              512 (U)
 DBCSR| Multiplication stack size                                           1000 (D)
 DBCSR| Maximum elements for images                                    UNLIMITED (U)
 DBCSR| Multiplicative factor virtual images                                   1 (U)
 DBCSR| Use multiplication densification                                       T (D)
 DBCSR| Multiplication size stacks                                             3 (U)
 DBCSR| Use memory pool for CPU allocation                                     F (U)
 DBCSR| Number of 3D layers                                               SINGLE (U)
 DBCSR| Use MPI memory allocation                                              F (U)
 DBCSR| Use RMA algorithm                                                      F (U)
 DBCSR| Use Communication thread                                               T (U)
 DBCSR| Communication thread load                                             87 (D)
 DBCSR| MPI: My process id                                                     0
 DBCSR| MPI: Number of processes                                             128
 DBCSR| OMP: Current number of threads                                         1
 DBCSR| OMP: Max number of threads                                             1
 DBCSR| Split modifier for TAS multiplication algorithm                  1.0E+00 (U)


  **** **** ******  **  PROGRAM STARTED AT               2023-02-15 11:18:09.469
 ***** ** ***  *** **   PROGRAM STARTED ON                             nid001308
 **    ****   ******    PROGRAM STARTED BY                                cahart
 ***** **    ** ** **   PROGRAM PROCESS ID                                243712
  **** **  *******  **  PROGRAM STARTED IN /mnt/lustre/a2fs-work2/work/e05/e05/c
                                           ahart/postdoc/masters/ni/archer2/slab
                                           /optimise/magnetisation/scf_1e-4_temp
                                           -2000_mos-1000_alpha-0.08_beta-1.5_pe
                                           riodic-xyz/search/0.20_0.5

 CP2K| version string:                 CP2K version 2023.1 (Development Version)
 CP2K| source code revision number:                                  git:964cd58
 CP2K| cp2kflags: omp libint fftw3 libxc elpa parallel scalapack xsmm plumed2 mk
 CP2K|            l
 CP2K| is freely available from                            https://www.cp2k.org/
 CP2K| Program compiled at                          Mon 13 Feb 17:05:14 GMT 2023
 CP2K| Program compiled on                                                  ln01
 CP2K| Program compiled for                                              ARCHER2
 CP2K| Data directory path    /work/e05/e05/cahart/cp2k/cp2k-2023.1/cp2k-2023.1-
 CP2K| Input file name                                                  cp2k.inp

 GLOBAL| Force Environment number                                              1
 GLOBAL| Basis set file name                                        BASIS_MOLOPT
 GLOBAL| Potential file name                                      GTH_POTENTIALS
 GLOBAL| MM Potential file name                                     MM_POTENTIAL
 GLOBAL| Coordinate file name                                      __STD_INPUT__
 GLOBAL| Method name                                                        CP2K
 GLOBAL| Project name                                                    Ni_bulk
 GLOBAL| Run type                                                         ENERGY
 GLOBAL| FFT library                                                       FFTW3
 GLOBAL| Diagonalization library                                            ELPA
 GLOBAL| DGEMM library                                                      BLAS
 GLOBAL| Minimum number of eigenvectors for ELPA usage                        16
 GLOBAL| Orthonormality check for eigenvectors                          DISABLED
 GLOBAL| Matrix multiplication library                                 ScaLAPACK
 GLOBAL| All-to-all communication in single precision                          F
 GLOBAL| FFTs using library dependent lengths                                  F
 GLOBAL| Grid backend                                                       AUTO
 GLOBAL| Global print level                                               MEDIUM
 GLOBAL| MPI I/O enabled                                                       T
 GLOBAL| Total number of message passing processes                           128
 GLOBAL| Number of threads for this process                                    1
 GLOBAL| This output is from process                                           0
 GLOBAL| Stack size for threads created by OpenMP (OMP_STACKSIZE)        default
 GLOBAL| CPU model name                          AMD EPYC 7742 64-Core Processor
 GLOBAL| CPUID                                                              1002

 MEMORY| system memory details [Kb]
 MEMORY|                        rank 0           min           max       average
 MEMORY| MemTotal            263528088     263528088     263528088     263528088
 MEMORY| MemFree             238477924     238477924     238477924     238477924
 MEMORY| Buffers                 34312         34312         34312         34312
 MEMORY| Cached                 856004        856004        856004        856004
 MEMORY| Slab                  1703604       1703604       1703604       1703604
 MEMORY| SReclaimable           105612        105612        105612        105612
 MEMORY| MemLikelyFree       239473852     239473852     239473852     239473852


 *** Fundamental physical constants (SI units) ***

 *** Literature: B. J. Mohr and B. N. Taylor,
 ***             CODATA recommended values of the fundamental physical
 ***             constants: 2006, Web Version 5.1
 ***             http://physics.nist.gov/constants

 Speed of light in vacuum [m/s]                             2.99792458000000E+08
 Magnetic constant or permeability of vacuum [N/A**2]       1.25663706143592E-06
 Electric constant or permittivity of vacuum [F/m]          8.85418781762039E-12
 Planck constant (h) [J*s]                                  6.62606896000000E-34
 Planck constant (h-bar) [J*s]                              1.05457162825177E-34
 Elementary charge [C]                                      1.60217648700000E-19
 Electron mass [kg]                                         9.10938215000000E-31
 Electron g factor [ ]                                     -2.00231930436220E+00
 Proton mass [kg]                                           1.67262163700000E-27
 Fine-structure constant                                    7.29735253760000E-03
 Rydberg constant [1/m]                                     1.09737315685270E+07
 Avogadro constant [1/mol]                                  6.02214179000000E+23
 Boltzmann constant [J/K]                                   1.38065040000000E-23
 Atomic mass unit [kg]                                      1.66053878200000E-27
 Bohr radius [m]                                            5.29177208590000E-11

 *** Conversion factors ***

 [u] -> [a.u.]                                              1.82288848426455E+03
 [Angstrom] -> [Bohr] = [a.u.]                              1.88972613288564E+00
 [a.u.] = [Bohr] -> [Angstrom]                              5.29177208590000E-01
 [a.u.] -> [s]                                              2.41888432650478E-17
 [a.u.] -> [fs]                                             2.41888432650478E-02
 [a.u.] -> [J]                                              4.35974393937059E-18
 [a.u.] -> [N]                                              8.23872205491840E-08
 [a.u.] -> [K]                                              3.15774647902944E+05
 [a.u.] -> [kJ/mol]                                         2.62549961709828E+03
 [a.u.] -> [kcal/mol]                                       6.27509468713739E+02
 [a.u.] -> [Pa]                                             2.94210107994716E+13
 [a.u.] -> [bar]                                            2.94210107994716E+08
 [a.u.] -> [atm]                                            2.90362800883016E+08
 [a.u.] -> [eV]                                             2.72113838565563E+01
 [a.u.] -> [Hz]                                             6.57968392072181E+15
 [a.u.] -> [1/cm] (wave numbers)                            2.19474631370540E+05
 [a.u./Bohr**2] -> [1/cm]                                   5.14048714338585E+03
 

 CELL_TOP| Volume [angstrom^3]:                                       983.249569
 CELL_TOP| Vector a [angstrom     7.012     0.000     0.000   |a| =     7.011596
 CELL_TOP| Vector b [angstrom     0.000     7.012     0.000   |b| =     7.011596
 CELL_TOP| Vector c [angstrom     0.000     0.000    20.000   |c| =    20.000000
 CELL_TOP| Angle (b,c), alpha [degree]:                                90.000000
 CELL_TOP| Angle (a,c), beta  [degree]:                                90.000000
 CELL_TOP| Angle (a,b), gamma [degree]:                                90.000000
 CELL_TOP| Numerically orthorhombic:                                         YES
 CELL_TOP| Periodicity                                                       XYZ

 GENERATE|  Preliminary Number of Bonds generated:                             0
 GENERATE|  Achieved consistency in connectivity generation.

 CELL| Volume [angstrom^3]:                                           983.249569
 CELL| Vector a [angstrom]:       7.012     0.000     0.000   |a| =     7.011596
 CELL| Vector b [angstrom]:       0.000     7.012     0.000   |b| =     7.011596
 CELL| Vector c [angstrom]:       0.000     0.000    20.000   |c| =    20.000000
 CELL| Angle (b,c), alpha [degree]:                                    90.000000
 CELL| Angle (a,c), beta  [degree]:                                    90.000000
 CELL| Angle (a,b), gamma [degree]:                                    90.000000
 CELL| Numerically orthorhombic:                                             YES
 CELL| Periodicity                                                           XYZ

 CELL_REF| Volume [angstrom^3]:                                       983.249569
 CELL_REF| Vector a [angstrom     7.012     0.000     0.000   |a| =     7.011596
 CELL_REF| Vector b [angstrom     0.000     7.012     0.000   |b| =     7.011596
 CELL_REF| Vector c [angstrom     0.000     0.000    20.000   |c| =    20.000000
 CELL_REF| Angle (b,c), alpha [degree]:                                90.000000
 CELL_REF| Angle (a,c), beta  [degree]:                                90.000000
 CELL_REF| Angle (a,b), gamma [degree]:                                90.000000
 CELL_REF| Numerically orthorhombic:                                         YES
 CELL_REF| Periodicity                                                       XYZ

 *** WARNING in cryssym.F:165 :: Symmetry library SPGLIB not available ***


 *******************************************************************************
                                    Kpoints
 *******************************************************************************
 BRILLOUIN| K-point scheme                                        Monkhorst-Pack
 BRILLOUIN| K-Point grid                                             4    4    1
 BRILLOUIN| Accuracy in Symmetry determination                      0.100000E-05
 BRILLOUIN| K-Point point group symmetrization                               OFF
 BRILLOUIN| Wavefunction type                                            COMPLEX
 BRILLOUIN| List of Kpoints [2 Pi/Bohr]                                        8
 BRILLOUIN| Number           Weight            X              Y              Z
 BRILLOUIN|     1           0.12500       -0.37500       -0.37500        0.00000
 BRILLOUIN|     2           0.12500       -0.37500       -0.12500        0.00000
 BRILLOUIN|     3           0.12500       -0.37500        0.12500        0.00000
 BRILLOUIN|     4           0.12500       -0.37500        0.37500        0.00000
 BRILLOUIN|     5           0.12500       -0.12500       -0.37500        0.00000
 BRILLOUIN|     6           0.12500       -0.12500       -0.12500        0.00000
 BRILLOUIN|     7           0.12500       -0.12500        0.12500        0.00000
 BRILLOUIN|     8           0.12500       -0.12500        0.37500        0.00000
 *******************************************************************************

 *******************************************************************************
 *******************************************************************************
 **                                                                           **
 **     #####                         ##              ##                      **
 **    ##   ##            ##          ##              ##                      **
 **   ##     ##                       ##            ######                    **
 **   ##     ##  ##   ##  ##   #####  ##  ##   ####   ##    #####    #####    **
 **   ##     ##  ##   ##  ##  ##      ## ##   ##      ##   ##   ##  ##   ##   **
 **   ##  ## ##  ##   ##  ##  ##      ####     ###    ##   ######   ######    **
 **    ##  ###   ##   ##  ##  ##      ## ##      ##   ##   ##       ##        **
 **     #######   #####   ##   #####  ##  ##  ####    ##    #####   ##        **
 **           ##                                                    ##        **
 **                                                                           **
 **                                                ... make the atoms dance   **
 **                                                                           **
 **            Copyright (C) by CP2K developers group (2000-2023)             **
 **                      J. Chem. Phys. 152, 194103 (2020)                    **
 **                                                                           **
 *******************************************************************************

 *** WARNING in qs_environment.F:1456 :: Number of electrons will be ***
 *** overwritten by NELEC_ALPHA and NELEC_BETA, multiplicity will be ***
 *** ignored.                                                        ***

 Number of electrons should be                                               576
 Sum of NELEC_ALPHA and NELEC_BETA is                                    576.000

 *** WARNING in qs_environment.F:1488 :: NELEC_ALPHA is not an integer, ***
 *** many features will not be supported.                               ***


 *** WARNING in qs_environment.F:1500 :: NELEC_BETA is not an integer, ***
 *** many features will not be supported.                              ***


 *** WARNING in qs_environment.F:1532 :: More ADDED_MOs requested for beta ***
 *** spin than available.                                                  ***


 *** WARNING in qs_environment.F:1548 :: More added MOs requested than     ***
 *** available. The full set of unoccupied MOs will be used. Use           ***
 *** 'ADDED_MOS -1' to always use all available MOs and to get rid of this ***
 *** warning.                                                              ***


 DFT| Spin unrestricted (spin-polarized) Kohn-Sham calculation               UKS
 DFT| Multiplicity                                                             1
 DFT| Number of spin states                                                    2
 DFT| Charge                                                                   0
 DFT| Self-interaction correction (SIC)                                       NO
 DFT| Cutoffs: density                                              1.000000E-10
 DFT|          gradient                                             1.000000E-10
 DFT|          tau                                                  1.000000E-10
 DFT|          cutoff_smoothing_range                               0.000000E+00
 DFT| XC density smoothing                                                  NONE
 DFT| XC derivatives                                                          PW

 FUNCTIONAL| PBE:
 FUNCTIONAL| J.P.Perdew, K.Burke, M.Ernzerhof, Phys. Rev. Letter, vol. 77, n 18,
 FUNCTIONAL|  pp. 3865-3868, (1996){spin polarized}                             

 vdW POTENTIAL|                                                   Pair Potential
 vdW POTENTIAL|          DFT-D3 (Version 3.1)
 vdW POTENTIAL|          Potential Form: S. Grimme et al, JCP 132: 154104 (2010)
 vdW POTENTIAL|          Zero Damping
 vdW POTENTIAL|          Cutoff Radius [Bohr]:                             20.00
 vdW POTENTIAL|          s6 Scaling Factor:                               1.0000
 vdW POTENTIAL|          sr6 Scaling Factor:                              1.2170
 vdW POTENTIAL|          s8 Scaling Factor:                               0.7220
 vdW POTENTIAL|          Cutoff for CN calculation:                   0.1000E-05

 QS| Method:                                                                 GPW
 QS| Density plane wave grid type                        NON-SPHERICAL FULLSPACE
 QS| Number of grid levels:                                                    5
 QS| Density cutoff [a.u.]:                                                300.0
 QS| Multi grid cutoff [a.u.]: 1) grid level                               300.0
 QS|                           2) grid level                               100.0
 QS|                           3) grid level                                33.3
 QS|                           4) grid level                                11.1
 QS|                           5) grid level                                 3.7
 QS| Grid level progression factor:                                          3.0
 QS| Relative density cutoff [a.u.]:                                        30.0
 QS| Interaction thresholds: eps_pgf_orb:                                1.0E-06
 QS|                         eps_filter_matrix:                          0.0E+00
 QS|                         eps_core_charge:                            1.0E-14
 QS|                         eps_rho_gspace:                             1.0E-12
 QS|                         eps_rho_rspace:                             1.0E-12
 QS|                         eps_gvg_rspace:                             1.0E-06
 QS|                         eps_ppl:                                    1.0E-02
 QS|                         eps_ppnl:                                   1.0E-08


 ATOMIC KIND INFORMATION

  1. Atomic kind: Ni_i                                  Number of atoms:      16

     Orbital Basis Set                                        DZVP-MOLOPT-SR-GTH

       Number of orbital shell sets:                                           1
       Number of orbital shells:                                               8
       Number of primitive Cartesian functions:                                6
       Number of Cartesian basis functions:                                   31
       Number of spherical basis functions:                                   26
       Norm type:                                                              2

       Normalised Cartesian orbitals:

                        Set   Shell   Orbital            Exponent    Coefficient

                          1       1    2s               10.077428      -0.684558
                                                         5.847736      -0.844524
                                                         2.494033       1.088856
                                                         0.988355       0.395503
                                                         0.344978       0.010224
                                                         0.099466      -0.003250

                          1       2    3s               10.077428       0.096747
                                                         5.847736       0.162504
                                                         2.494033      -0.297192
                                                         0.988355      -0.319752
                                                         0.344978       0.088318
                                                         0.099466       0.118587

                          1       3    4s               10.077428       0.036437
                                                         5.847736      -0.381480
                                                         2.494033       0.003759
                                                         0.988355      -1.048256
                                                         0.344978       0.855825
                                                         0.099466      -0.176350

                          1       4    3px              10.077428      -3.133913
                                                         5.847736       3.027656
                                                         2.494033       2.353227
                                                         0.988355       0.554184
                                                         0.344978       0.019462
                                                         0.099466      -0.000291
                          1       4    3py              10.077428      -3.133913
                                                         5.847736       3.027656
                                                         2.494033       2.353227
                                                         0.988355       0.554184
                                                         0.344978       0.019462
                                                         0.099466      -0.000291
                          1       4    3pz              10.077428      -3.133913
                                                         5.847736       3.027656
                                                         2.494033       2.353227
                                                         0.988355       0.554184
                                                         0.344978       0.019462
                                                         0.099466      -0.000291

                          1       5    4px              10.077428      -0.112729
                                                         5.847736      -0.114008
                                                         2.494033      -0.347303
                                                         0.988355      -0.110323
                                                         0.344978       0.154096
                                                         0.099466       0.058386
                          1       5    4py              10.077428      -0.112729
                                                         5.847736      -0.114008
                                                         2.494033      -0.347303
                                                         0.988355      -0.110323
                                                         0.344978       0.154096
                                                         0.099466       0.058386
                          1       5    4pz              10.077428      -0.112729
                                                         5.847736      -0.114008
                                                         2.494033      -0.347303
                                                         0.988355      -0.110323
                                                         0.344978       0.154096
                                                         0.099466       0.058386

                          1       6    4dx2             10.077428       8.232726
                                                         5.847736       9.105758
                                                         2.494033       2.849835
                                                         0.988355       0.554319
                                                         0.344978       0.067245
                                                         0.099466       0.001940
                          1       6    4dxy             10.077428      14.259500
                                                         5.847736      15.771636
                                                         2.494033       4.936060
                                                         0.988355       0.960109
                                                         0.344978       0.116472
                                                         0.099466       0.003360
                          1       6    4dxz             10.077428      14.259500
                                                         5.847736      15.771636
                                                         2.494033       4.936060
                                                         0.988355       0.960109
                                                         0.344978       0.116472
                                                         0.099466       0.003360
                          1       6    4dy2             10.077428       8.232726
                                                         5.847736       9.105758
                                                         2.494033       2.849835
                                                         0.988355       0.554319
                                                         0.344978       0.067245
                                                         0.099466       0.001940
                          1       6    4dyz             10.077428      14.259500
                                                         5.847736      15.771636
                                                         2.494033       4.936060
                                                         0.988355       0.960109
                                                         0.344978       0.116472
                                                         0.099466       0.003360
                          1       6    4dz2             10.077428       8.232726
                                                         5.847736       9.105758
                                                         2.494033       2.849835
                                                         0.988355       0.554319
                                                         0.344978       0.067245
                                                         0.099466       0.001940

                          1       7    5dx2             10.077428      -2.715373
                                                         5.847736      -4.020640
                                                         2.494033      -1.397569
                                                         0.988355      -0.076143
                                                         0.344978       0.033435
                                                         0.099466       0.026032
                          1       7    5dxy             10.077428      -4.703164
                                                         5.847736      -6.963952
                                                         2.494033      -2.420661
                                                         0.988355      -0.131883
                                                         0.344978       0.057911
                                                         0.099466       0.045088
                          1       7    5dxz             10.077428      -4.703164
                                                         5.847736      -6.963952
                                                         2.494033      -2.420661
                                                         0.988355      -0.131883
                                                         0.344978       0.057911
                                                         0.099466       0.045088
                          1       7    5dy2             10.077428      -2.715373
                                                         5.847736      -4.020640
                                                         2.494033      -1.397569
                                                         0.988355      -0.076143
                                                         0.344978       0.033435
                                                         0.099466       0.026032
                          1       7    5dyz             10.077428      -4.703164
                                                         5.847736      -6.963952
                                                         2.494033      -2.420661
                                                         0.988355      -0.131883
                                                         0.344978       0.057911
                                                         0.099466       0.045088
                          1       7    5dz2             10.077428      -2.715373
                                                         5.847736      -4.020640
                                                         2.494033      -1.397569
                                                         0.988355      -0.076143
                                                         0.344978       0.033435
                                                         0.099466       0.026032

                          1       8    5fx3             10.077428      -0.467694
                                                         5.847736       0.618100
                                                         2.494033       0.066069
                                                         0.988355       0.262898
                                                         0.344978       0.004720
                                                         0.099466       0.007748
                          1       8    5fx2y            10.077428      -1.045795
                                                         5.847736       1.382114
                                                         2.494033       0.147734
                                                         0.988355       0.587859
                                                         0.344978       0.010555
                                                         0.099466       0.017325
                          1       8    5fx2z            10.077428      -1.045795
                                                         5.847736       1.382114
                                                         2.494033       0.147734
                                                         0.988355       0.587859
                                                         0.344978       0.010555
                                                         0.099466       0.017325
                          1       8    5fxy2            10.077428      -1.045795
                                                         5.847736       1.382114
                                                         2.494033       0.147734
                                                         0.988355       0.587859
                                                         0.344978       0.010555
                                                         0.099466       0.017325
                          1       8    5fxyz            10.077428      -1.811371
                                                         5.847736       2.393892
                                                         2.494033       0.255883
                                                         0.988355       1.018201
                                                         0.344978       0.018282
                                                         0.099466       0.030008
                          1       8    5fxz2            10.077428      -1.045795
                                                         5.847736       1.382114
                                                         2.494033       0.147734
                                                         0.988355       0.587859
                                                         0.344978       0.010555
                                                         0.099466       0.017325
                          1       8    5fy3             10.077428      -0.467694
                                                         5.847736       0.618100
                                                         2.494033       0.066069
                                                         0.988355       0.262898
                                                         0.344978       0.004720
                                                         0.099466       0.007748
                          1       8    5fy2z            10.077428      -1.045795
                                                         5.847736       1.382114
                                                         2.494033       0.147734
                                                         0.988355       0.587859
                                                         0.344978       0.010555
                                                         0.099466       0.017325
                          1       8    5fyz2            10.077428      -1.045795
                                                         5.847736       1.382114
                                                         2.494033       0.147734
                                                         0.988355       0.587859
                                                         0.344978       0.010555
                                                         0.099466       0.017325
                          1       8    5fz3             10.077428      -0.467694
                                                         5.847736       0.618100
                                                         2.494033       0.066069
                                                         0.988355       0.262898
                                                         0.344978       0.004720
                                                         0.099466       0.007748

       Atomic covalent radius [Angstrom]:                                  1.150

       Atomic van der Waals radius [Angstrom]:                             1.630

     GTH Potential information for                                   GTH-PBE-q18

       Description:                       Goedecker-Teter-Hutter pseudopotential
                                           Goedecker et al., PRB 54, 1703 (1996)
                                          Hartwigsen et al., PRB 58, 3641 (1998)
                                                      Krack, TCA 114, 145 (2005)

       Gaussian exponent of the core charge distribution:               4.081633
       Electronic configuration (s p d ...):                           4   6   8

       Parameters of the local part of the GTH pseudopotential:

                          rloc        C1          C2          C3          C4
                        0.350000    2.102166    0.648484

       Parameters of the non-local part of the GTH pseudopotential:

                   l      r(l)      h(i,j,l)

                   0    0.261295    0.622658    9.970227
                                    9.970227  -12.871507
                   1    0.224253  -11.142708   12.429566
                                   12.429566  -14.706861
                   2    0.215348  -12.628146

  2. Atomic kind: Ni_b                                  Number of atoms:      16

     Orbital Basis Set                                        DZVP-MOLOPT-SR-GTH

       Number of orbital shell sets:                                           1
       Number of orbital shells:                                               8
       Number of primitive Cartesian functions:                                6
       Number of Cartesian basis functions:                                   31
       Number of spherical basis functions:                                   26
       Norm type:                                                              2

       Normalised Cartesian orbitals:

                        Set   Shell   Orbital            Exponent    Coefficient

                          1       1    2s               10.077428      -0.684558
                                                         5.847736      -0.844524
                                                         2.494033       1.088856
                                                         0.988355       0.395503
                                                         0.344978       0.010224
                                                         0.099466      -0.003250

                          1       2    3s               10.077428       0.096747
                                                         5.847736       0.162504
                                                         2.494033      -0.297192
                                                         0.988355      -0.319752
                                                         0.344978       0.088318
                                                         0.099466       0.118587

                          1       3    4s               10.077428       0.036437
                                                         5.847736      -0.381480
                                                         2.494033       0.003759
                                                         0.988355      -1.048256
                                                         0.344978       0.855825
                                                         0.099466      -0.176350

                          1       4    3px              10.077428      -3.133913
                                                         5.847736       3.027656
                                                         2.494033       2.353227
                                                         0.988355       0.554184
                                                         0.344978       0.019462
                                                         0.099466      -0.000291
                          1       4    3py              10.077428      -3.133913
                                                         5.847736       3.027656
                                                         2.494033       2.353227
                                                         0.988355       0.554184
                                                         0.344978       0.019462
                                                         0.099466      -0.000291
                          1       4    3pz              10.077428      -3.133913
                                                         5.847736       3.027656
                                                         2.494033       2.353227
                                                         0.988355       0.554184
                                                         0.344978       0.019462
                                                         0.099466      -0.000291

                          1       5    4px              10.077428      -0.112729
                                                         5.847736      -0.114008
                                                         2.494033      -0.347303
                                                         0.988355      -0.110323
                                                         0.344978       0.154096
                                                         0.099466       0.058386
                          1       5    4py              10.077428      -0.112729
                                                         5.847736      -0.114008
                                                         2.494033      -0.347303
                                                         0.988355      -0.110323
                                                         0.344978       0.154096
                                                         0.099466       0.058386
                          1       5    4pz              10.077428      -0.112729
                                                         5.847736      -0.114008
                                                         2.494033      -0.347303
                                                         0.988355      -0.110323
                                                         0.344978       0.154096
                                                         0.099466       0.058386

                          1       6    4dx2             10.077428       8.232726
                                                         5.847736       9.105758
                                                         2.494033       2.849835
                                                         0.988355       0.554319
                                                         0.344978       0.067245
                                                         0.099466       0.001940
                          1       6    4dxy             10.077428      14.259500
                                                         5.847736      15.771636
                                                         2.494033       4.936060
                                                         0.988355       0.960109
                                                         0.344978       0.116472
                                                         0.099466       0.003360
                          1       6    4dxz             10.077428      14.259500
                                                         5.847736      15.771636
                                                         2.494033       4.936060
                                                         0.988355       0.960109
                                                         0.344978       0.116472
                                                         0.099466       0.003360
                          1       6    4dy2             10.077428       8.232726
                                                         5.847736       9.105758
                                                         2.494033       2.849835
                                                         0.988355       0.554319
                                                         0.344978       0.067245
                                                         0.099466       0.001940
                          1       6    4dyz             10.077428      14.259500
                                                         5.847736      15.771636
                                                         2.494033       4.936060
                                                         0.988355       0.960109
                                                         0.344978       0.116472
                                                         0.099466       0.003360
                          1       6    4dz2             10.077428       8.232726
                                                         5.847736       9.105758
                                                         2.494033       2.849835
                                                         0.988355       0.554319
                                                         0.344978       0.067245
                                                         0.099466       0.001940

                          1       7    5dx2             10.077428      -2.715373
                                                         5.847736      -4.020640
                                                         2.494033      -1.397569
                                                         0.988355      -0.076143
                                                         0.344978       0.033435
                                                         0.099466       0.026032
                          1       7    5dxy             10.077428      -4.703164
                                                         5.847736      -6.963952
                                                         2.494033      -2.420661
                                                         0.988355      -0.131883
                                                         0.344978       0.057911
                                                         0.099466       0.045088
                          1       7    5dxz             10.077428      -4.703164
                                                         5.847736      -6.963952
                                                         2.494033      -2.420661
                                                         0.988355      -0.131883
                                                         0.344978       0.057911
                                                         0.099466       0.045088
                          1       7    5dy2             10.077428      -2.715373
                                                         5.847736      -4.020640
                                                         2.494033      -1.397569
                                                         0.988355      -0.076143
                                                         0.344978       0.033435
                                                         0.099466       0.026032
                          1       7    5dyz             10.077428      -4.703164
                                                         5.847736      -6.963952
                                                         2.494033      -2.420661
                                                         0.988355      -0.131883
                                                         0.344978       0.057911
                                                         0.099466       0.045088
                          1       7    5dz2             10.077428      -2.715373
                                                         5.847736      -4.020640
                                                         2.494033      -1.397569
                                                         0.988355      -0.076143
                                                         0.344978       0.033435
                                                         0.099466       0.026032

                          1       8    5fx3             10.077428      -0.467694
                                                         5.847736       0.618100
                                                         2.494033       0.066069
                                                         0.988355       0.262898
                                                         0.344978       0.004720
                                                         0.099466       0.007748
                          1       8    5fx2y            10.077428      -1.045795
                                                         5.847736       1.382114
                                                         2.494033       0.147734
                                                         0.988355       0.587859
                                                         0.344978       0.010555
                                                         0.099466       0.017325
                          1       8    5fx2z            10.077428      -1.045795
                                                         5.847736       1.382114
                                                         2.494033       0.147734
                                                         0.988355       0.587859
                                                         0.344978       0.010555
                                                         0.099466       0.017325
                          1       8    5fxy2            10.077428      -1.045795
                                                         5.847736       1.382114
                                                         2.494033       0.147734
                                                         0.988355       0.587859
                                                         0.344978       0.010555
                                                         0.099466       0.017325
                          1       8    5fxyz            10.077428      -1.811371
                                                         5.847736       2.393892
                                                         2.494033       0.255883
                                                         0.988355       1.018201
                                                         0.344978       0.018282
                                                         0.099466       0.030008
                          1       8    5fxz2            10.077428      -1.045795
                                                         5.847736       1.382114
                                                         2.494033       0.147734
                                                         0.988355       0.587859
                                                         0.344978       0.010555
                                                         0.099466       0.017325
                          1       8    5fy3             10.077428      -0.467694
                                                         5.847736       0.618100
                                                         2.494033       0.066069
                                                         0.988355       0.262898
                                                         0.344978       0.004720
                                                         0.099466       0.007748
                          1       8    5fy2z            10.077428      -1.045795
                                                         5.847736       1.382114
                                                         2.494033       0.147734
                                                         0.988355       0.587859
                                                         0.344978       0.010555
                                                         0.099466       0.017325
                          1       8    5fyz2            10.077428      -1.045795
                                                         5.847736       1.382114
                                                         2.494033       0.147734
                                                         0.988355       0.587859
                                                         0.344978       0.010555
                                                         0.099466       0.017325
                          1       8    5fz3             10.077428      -0.467694
                                                         5.847736       0.618100
                                                         2.494033       0.066069
                                                         0.988355       0.262898
                                                         0.344978       0.004720
                                                         0.099466       0.007748

       Atomic covalent radius [Angstrom]:                                  1.150

       Atomic van der Waals radius [Angstrom]:                             1.630

     GTH Potential information for                                   GTH-PBE-q18

       Description:                       Goedecker-Teter-Hutter pseudopotential
                                           Goedecker et al., PRB 54, 1703 (1996)
                                          Hartwigsen et al., PRB 58, 3641 (1998)
                                                      Krack, TCA 114, 145 (2005)

       Gaussian exponent of the core charge distribution:               4.081633
       Electronic configuration (s p d ...):                           4   6   8

       Parameters of the local part of the GTH pseudopotential:

                          rloc        C1          C2          C3          C4
                        0.350000    2.102166    0.648484

       Parameters of the non-local part of the GTH pseudopotential:

                   l      r(l)      h(i,j,l)

                   0    0.261295    0.622658    9.970227
                                    9.970227  -12.871507
                   1    0.224253  -11.142708   12.429566
                                   12.429566  -14.706861
                   2    0.215348  -12.628146


 MOLECULE KIND INFORMATION


 All atoms are their own molecule, skipping detailed information


 TOTAL NUMBERS AND MAXIMUM NUMBERS

  Total number of            - Atomic kinds:                                   2
                             - Atoms:                                         32
                             - Shell sets:                                    32
                             - Shells:                                       256
                             - Primitive Cartesian functions:                192
                             - Cartesian basis functions:                    992
                             - Spherical basis functions:                    832

  Maximum angular momentum of- Orbital basis functions:                        3
                             - Local part of the GTH pseudopotential:          2
                             - Non-local part of the GTH pseudopotential:      3


 MODULE QUICKSTEP: ATOMIC COORDINATES IN ANGSTROM

   Atom Kind Element         X             Y             Z       Z(eff)     Mass
      1    1 Ni   28      0.876298      0.876298      7.370500  18.0000  58.6934
      2    1 Ni   28      0.876298      4.382298      7.370500  18.0000  58.6934
      3    1 Ni   28      2.629298      2.629298      7.370500  18.0000  58.6934
      4    1 Ni   28      2.629298      6.135298      7.370500  18.0000  58.6934
      5    1 Ni   28      4.382298      0.876298      7.370500  18.0000  58.6934
      6    1 Ni   28      4.382298      4.382298      7.370500  18.0000  58.6934
      7    1 Ni   28      6.135298      2.629298      7.370500  18.0000  58.6934
      8    1 Ni   28      6.135298      6.135298      7.370500  18.0000  58.6934
      9    2 Ni   28      0.876298      2.629298      9.123500  18.0000  58.6934
     10    2 Ni   28      0.876298      6.135298      9.123500  18.0000  58.6934
     11    2 Ni   28      2.629298      0.876298      9.123500  18.0000  58.6934
     12    2 Ni   28      2.629298      4.382298      9.123500  18.0000  58.6934
     13    2 Ni   28      4.382298      2.629298      9.123500  18.0000  58.6934
     14    2 Ni   28      4.382298      6.135298      9.123500  18.0000  58.6934
     15    2 Ni   28      6.135298      0.876298      9.123500  18.0000  58.6934
     16    2 Ni   28      6.135298      4.382298      9.123500  18.0000  58.6934
     17    2 Ni   28      0.876298      0.876298     10.876500  18.0000  58.6934
     18    2 Ni   28      0.876298      4.382298     10.876500  18.0000  58.6934
     19    2 Ni   28      2.629298      2.629298     10.876500  18.0000  58.6934
     20    2 Ni   28      2.629298      6.135298     10.876500  18.0000  58.6934
     21    2 Ni   28      4.382298      0.876298     10.876500  18.0000  58.6934
     22    2 Ni   28      4.382298      4.382298     10.876500  18.0000  58.6934
     23    2 Ni   28      6.135298      2.629298     10.876500  18.0000  58.6934
     24    2 Ni   28      6.135298      6.135298     10.876500  18.0000  58.6934
     25    1 Ni   28      0.876298      2.629298     12.629500  18.0000  58.6934
     26    1 Ni   28      0.876298      6.135298     12.629500  18.0000  58.6934
     27    1 Ni   28      2.629298      0.876298     12.629500  18.0000  58.6934
     28    1 Ni   28      2.629298      4.382298     12.629500  18.0000  58.6934
     29    1 Ni   28      4.382298      2.629298     12.629500  18.0000  58.6934
     30    1 Ni   28      4.382298      6.135298     12.629500  18.0000  58.6934
     31    1 Ni   28      6.135298      0.876298     12.629500  18.0000  58.6934
     32    1 Ni   28      6.135298      4.382298     12.629500  18.0000  58.6934



 SCF PARAMETERS         Density guess:                                    ATOMIC
                        --------------------------------------------------------
                        max_scf:                                             500
                        max_scf_history:                                       0
                        max_diis:                                              4
                        --------------------------------------------------------
                        eps_scf:                                        1.00E-04
                        eps_scf_history:                                0.00E+00
                        eps_diis:                                       1.00E-01
                        eps_eigval:                                     1.00E-05
                        --------------------------------------------------------
                        level_shift [a.u.]:                             0.000000
                        added MOs                                       538  549
                        --------------------------------------------------------
                        Mixing method:                            BROYDEN_MIXING
                                                charge density mixing in g-space
                        --------------------------------------------------------
                        Smear method:                                FERMI_DIRAC
                        Electronic temperature [K]:                       2000.0
                        Electronic temperature [a.u.]:                  6.33E-03
                        Accuracy threshold:                             1.00E-10
                        --------------------------------------------------------
                        No outer SCF

 PW_GRID| Information for grid number                                          1
 PW_GRID| Grid distributed over                                   128 processors
 PW_GRID| Real space group dimensions                                     8   16
 PW_GRID| the grid is blocked:                                               YES
 PW_GRID| Cutoff [a.u.]                                                    300.0
 PW_GRID| spherical cutoff:                                                   NO
 PW_GRID|   Bounds   1            -54      53                Points:         108
 PW_GRID|   Bounds   2            -54      53                Points:         108
 PW_GRID|   Bounds   3           -150     149                Points:         300
 PW_GRID| Volume element (a.u.^3)  0.1896E-02     Volume (a.u.^3)      6635.2971
 PW_GRID| Grid span                                                    FULLSPACE
 PW_GRID|   Distribution                         Average         Max         Min
 PW_GRID|   G-Vectors                            27337.5       28728       25272
 PW_GRID|   G-Rays                                 253.1         266         234
 PW_GRID|   Real Space Points                    27337.5       28728       25272

 PW_GRID| Information for grid number                                          2
 PW_GRID| Number of the reference grid                                         1
 PW_GRID| Grid distributed over                                   128 processors
 PW_GRID| Real space group dimensions                                     8   16
 PW_GRID| the grid is blocked:                                                NO
 PW_GRID| Cutoff [a.u.]                                                    100.0
 PW_GRID| spherical cutoff:                                                   NO
 PW_GRID|   Bounds   1            -30      29                Points:          60
 PW_GRID|   Bounds   2            -30      29                Points:          60
 PW_GRID|   Bounds   3            -90      89                Points:         180
 PW_GRID| Volume element (a.u.^3)  0.1024E-01     Volume (a.u.^3)      6635.2971
 PW_GRID| Grid span                                                    FULLSPACE
 PW_GRID|   Distribution                         Average         Max         Min
 PW_GRID|   G-Vectors                             5062.5       15960           0
 PW_GRID|   G-Rays                                  84.4         266           0
 PW_GRID|   Real Space Points                     5062.5        5760        3780

 PW_GRID| Information for grid number                                          3
 PW_GRID| Number of the reference grid                                         1
 PW_GRID| Grid distributed over                                   128 processors
 PW_GRID| Real space group dimensions                                     8   16
 PW_GRID| the grid is blocked:                                                NO
 PW_GRID| Cutoff [a.u.]                                                     33.3
 PW_GRID| spherical cutoff:                                                   NO
 PW_GRID|   Bounds   1            -18      17                Points:          36
 PW_GRID|   Bounds   2            -18      17                Points:          36
 PW_GRID|   Bounds   3            -50      49                Points:         100
 PW_GRID| Volume element (a.u.^3)  0.5120E-01     Volume (a.u.^3)      6635.2971
 PW_GRID| Grid span                                                    FULLSPACE
 PW_GRID|   Distribution                         Average         Max         Min
 PW_GRID|   G-Vectors                             1012.5        9576           0
 PW_GRID|   G-Rays                                  28.1         266           0
 PW_GRID|   Real Space Points                     1012.5        1500         800

 PW_GRID| Information for grid number                                          4
 PW_GRID| Number of the reference grid                                         1
 PW_GRID| Grid distributed over                                   128 processors
 PW_GRID| Real space group dimensions                                     8   16
 PW_GRID| the grid is blocked:                                                NO
 PW_GRID| Cutoff [a.u.]                                                     11.1
 PW_GRID| spherical cutoff:                                                   NO
 PW_GRID|   Bounds   1            -10       9                Points:          20
 PW_GRID|   Bounds   2            -10       9                Points:          20
 PW_GRID|   Bounds   3            -30      29                Points:          60
 PW_GRID| Volume element (a.u.^3)  0.2765         Volume (a.u.^3)      6635.2971
 PW_GRID| Grid span                                                    FULLSPACE
 PW_GRID|   Distribution                         Average         Max         Min
 PW_GRID|   G-Vectors                              187.5        3800           0
 PW_GRID|   G-Rays                                   9.4         190           0
 PW_GRID|   Real Space Points                      187.5         360         120

 PW_GRID| Information for grid number                                          5
 PW_GRID| Number of the reference grid                                         1
 PW_GRID| Grid distributed over                                   128 processors
 PW_GRID| Real space group dimensions                                     8   16
 PW_GRID| the grid is blocked:                                                NO
 PW_GRID| Cutoff [a.u.]                                                      3.7
 PW_GRID| spherical cutoff:                                                   NO
 PW_GRID|   Bounds   1             -6       5                Points:          12
 PW_GRID|   Bounds   2             -6       5                Points:          12
 PW_GRID|   Bounds   3            -18      17                Points:          36
 PW_GRID| Volume element (a.u.^3)   1.280         Volume (a.u.^3)      6635.2971
 PW_GRID| Grid span                                                    FULLSPACE
 PW_GRID|   Distribution                         Average         Max         Min
 PW_GRID|   G-Vectors                               40.5        1296           0
 PW_GRID|   G-Rays                                   3.4         108           0
 PW_GRID|   Real Space Points                       40.5          72           0

 POISSON| Solver                                                        PERIODIC
 POISSON| Periodicity                                                        XYZ

 RS_GRID| Information for grid number                                          1
 RS_GRID|   Bounds   1            -54      53                Points:         108
 RS_GRID|   Bounds   2            -54      53                Points:         108
 RS_GRID|   Bounds   3           -150     149                Points:         300
 RS_GRID| Real space distribution over                                  8 groups
 RS_GRID| Real space distribution along direction                              2
 RS_GRID| Border size                                                         28
 RS_GRID| Real space distribution over                                 16 groups
 RS_GRID| Real space distribution along direction                              3
 RS_GRID| Border size                                                         28
 RS_GRID|   Distribution                         Average         Max         Min
 RS_GRID|   Planes                                  69.5          70          69
 RS_GRID|   Distribution                         Average         Max         Min
 RS_GRID|   Planes                                  74.8          75          74

 RS_GRID| Information for grid number                                          2
 RS_GRID|   Bounds   1            -30      29                Points:          60
 RS_GRID|   Bounds   2            -30      29                Points:          60
 RS_GRID|   Bounds   3            -90      89                Points:         180
 RS_GRID| Real space fully replicated
 RS_GRID| Group size                                                           1

 RS_GRID| Information for grid number                                          3
 RS_GRID|   Bounds   1            -18      17                Points:          36
 RS_GRID|   Bounds   2            -18      17                Points:          36
 RS_GRID|   Bounds   3            -50      49                Points:         100
 RS_GRID| Real space fully replicated
 RS_GRID| Group size                                                           1

 RS_GRID| Information for grid number                                          4
 RS_GRID|   Bounds   1            -10       9                Points:          20
 RS_GRID|   Bounds   2            -10       9                Points:          20
 RS_GRID|   Bounds   3            -30      29                Points:          60
 RS_GRID| Real space fully replicated
 RS_GRID| Group size                                                           1

 RS_GRID| Information for grid number                                          5
 RS_GRID|   Bounds   1             -6       5                Points:          12
 RS_GRID|   Bounds   2             -6       5                Points:          12
 RS_GRID|   Bounds   3            -18      17                Points:          36
 RS_GRID| Real space fully replicated
 RS_GRID| Group size                                                           1

 Spin 1

 Number of electrons:                                                        293.600
 Number of occupied orbitals:                                                294
 Number of molecular orbitals:                                               832

 Spin 2

 Number of electrons:                                                        282.400
 Number of occupied orbitals:                                                283
 Number of molecular orbitals:                                               832

 Number of orbital functions:                                                832
 Number of independent orbital functions:                                    832

 Extrapolation method: initial_guess

 Atomic guess: The first density matrix is obtained in terms of atomic orbitals
               and electronic configurations assigned to each atomic kind

 Guess for atomic kind: Ni_i

 Electronic structure
    Total number of core electrons                                         10.00
    Total number of valence electrons                                      18.00
    Total number of electrons                                              28.00
    Multiplicity                                                         doublet
    Alpha Electrons
    S   [  1.00  1.00] 1.00  1.00
    P   [  3.00] 3.00
    D      4.25
    Beta Electrons
    S   [  1.00  1.00] 1.00  1.00
    P   [  3.00] 3.00
    D      3.75


 *******************************************************************************
                  Iteration          Convergence                     Energy [au]
 *******************************************************************************
                          1         1.51687                    -167.065012761055
                          2         14.9817                    -156.620431300845
                          3         2.25575                    -168.317311438693
                          4        0.189210                    -168.607926092750
                          5        0.708658E-01                -168.610773319290
                          6        0.122256E-01                -168.611238205502
                          7        0.598421E-02                -168.611272268995
                          8        0.528277E-02                -168.611272438110
                          9        0.104644E-02                -168.611275321653
                         10        0.260234E-02                -168.611274926630
                         11        0.975322E-03                -168.611275328217
                         12        0.161067E-03                -168.611275447773
                         13        0.147413E-03                -168.611275446839
                         14        0.115114E-03                -168.611275449434
                         15        0.167217E-03                -168.611275445436
                         16        0.255374E-04                -168.611275450531
                         17        0.418369E-04                -168.611275450414
                         18        0.393709E-04                -168.611275450477
                         19        0.239931E-04                -168.611275450542
                         20        0.173885E-04                -168.611275450557
                         21        0.851368E-05                -168.611275450578
                         22        0.849928E-05                -168.611275450580
                         23        0.544937E-05                -168.611275450584
                         24        0.540003E-05                -168.611275450586
                         25        0.613371E-05                -168.611275450584
                         26        0.311593E-06                -168.611275450588

 Energy components [Hartree]           Total Energy ::         -168.611275450588
                                        Band Energy ::          -26.568680144499
                                     Kinetic Energy ::           97.303659243130
                                   Potential Energy ::         -265.914934693718
                                      Virial (-V/T) ::            2.732835915546
                                        Core Energy ::         -299.566189183323
                                          XC Energy ::          -16.224592878785
                                     Coulomb Energy ::          147.179506611520
                       Total Pseudopotential Energy ::         -396.956189041778
                       Local Pseudopotential Energy ::         -362.645043136649
                    Nonlocal Pseudopotential Energy ::          -34.311145905129
                                        Confinement ::            0.863406153250

 Orbital energies  State     Spin  L     Occupation   Energy[a.u.]    Energy[eV]

                       1    alpha  0          1.000      -4.168335   -113.426177
                       2    alpha  0          1.000      -0.180730     -4.917906
                       1     beta  0          1.000      -4.145459   -112.803683
                       2     beta  0          1.000      -0.177117     -4.819606

                       1    alpha  1          3.000      -2.574525    -70.056390
                       1     beta  1          3.000      -2.552268    -69.450746

                       1    alpha  2          4.250      -0.323446     -8.801405
                       1     beta  2          3.750      -0.304537     -8.286881


 Total Electron Density at R=0:                                         0.030429

 Guess for atomic kind: Ni_b

 Electronic structure
    Total number of core electrons                                         10.00
    Total number of valence electrons                                      18.00
    Total number of electrons                                              28.00
    Multiplicity                                                         singlet
    Alpha Electrons
    S   [  1.00  1.00] 1.00  1.00
    P   [  3.00] 3.00
    D      4.10
    Beta Electrons
    S   [  1.00  1.00] 1.00  1.00
    P   [  3.00] 3.00
    D      3.90


 *******************************************************************************
                  Iteration          Convergence                     Energy [au]
 *******************************************************************************
                          1         1.51622                    -167.062902623250
                          2         14.3647                    -156.600964914294
                          3         2.13599                    -168.315510661515
                          4        0.161821                    -168.606195552173
                          5        0.540283E-01                -168.608936883840
                          6        0.618436E-02                -168.609283940039
                          7        0.333525E-02                -168.609288609862
                          8        0.305386E-02                -168.609289088693
                          9        0.840678E-03                -168.609289939875
                         10        0.706330E-03                -168.609289993610
                         11        0.465363E-03                -168.609289993444
                         12        0.702866E-03                -168.609289995570
                         13        0.368287E-03                -168.609290023428
                         14        0.299337E-03                -168.609290030882
                         15        0.194511E-03                -168.609290035608
                         16        0.193402E-03                -168.609290040275
                         17        0.335008E-03                -168.609290034893
                         18        0.213044E-03                -168.609290039600
                         19        0.164680E-03                -168.609290041021
                         20        0.744172E-04                -168.609290042743
                         21        0.946952E-04                -168.609290043166
                         22        0.949877E-04                -168.609290043181
                         23        0.108131E-03                -168.609290042982
                         24        0.997944E-04                -168.609290043110
                         25        0.815837E-04                -168.609290043374
                         26        0.392905E-04                -168.609290043927
                         27        0.434470E-04                -168.609290043915
                         28        0.429000E-04                -168.609290043917
                         29        0.437098E-04                -168.609290043912
                         30        0.437965E-04                -168.609290043911
                         31        0.275170E-04                -168.609290044007
                         32        0.172083E-04                -168.609290044056
                         33        0.173204E-04                -168.609290044056
                         34        0.173564E-04                -168.609290044055
                         35        0.174212E-04                -168.609290044055
                         36        0.134987E-04                -168.609290044064
                         37        0.325820E-05                -168.609290044083
                         38        0.206927E-05                -168.609290044084
                         39        0.229090E-05                -168.609290044084
                         40        0.239879E-05                -168.609290044084
                         41        0.281274E-05                -168.609290044084
                         42        0.148423E-05                -168.609290044085
                         43        0.127768E-05                -168.609290044085
                         44        0.869506E-06                -168.609290044085

 Energy components [Hartree]           Total Energy ::         -168.609290044085
                                        Band Energy ::          -26.567722665824
                                     Kinetic Energy ::           97.300976348683
                                   Potential Energy ::         -265.910266392768
                                      Virial (-V/T) ::            2.732863290496
                                        Core Energy ::         -299.564621628544
                                          XC Energy ::          -16.222320813211
                                     Coulomb Energy ::          147.177652397670
                       Total Pseudopotential Energy ::         -396.951938294610
                       Local Pseudopotential Energy ::         -362.642198390373
                    Nonlocal Pseudopotential Energy ::          -34.309739904236
                                        Confinement ::            0.863403173827

 Orbital energies  State     Spin  L     Occupation   Energy[a.u.]    Energy[eV]

                       1    alpha  0          1.000      -4.161685   -113.245221
                       2    alpha  0          1.000      -0.179665     -4.888931
                       1     beta  0          1.000      -4.152535   -112.996227
                       2     beta  0          1.000      -0.178220     -4.849614

                       1    alpha  1          3.000      -2.568055    -69.880323
                       1     beta  1          3.000      -2.559152    -69.638070

                       1    alpha  2          4.100      -0.317937     -8.651501
                       1     beta  2          3.900      -0.310373     -8.445686


 Total Electron Density at R=0:                                         0.030435

 Spin 1
 Re-scaling the density matrix to get the right number of electrons for spin 1
                  # Electrons              Trace(P)               Scaling factor
                        293.600             293.600                        1.000

 Spin 2
 Re-scaling the density matrix to get the right number of electrons for spin 2
                  # Electrons              Trace(P)               Scaling factor
[...]
   133 Broy./Diag. 0.80E-01    1.5     0.01644282     -5414.3609222934  6.44E-01
   134 Broy./Diag. 0.80E-01    1.5     0.00524080     -5415.0790391145 -7.18E-01
   135 Broy./Diag. 0.80E-01    1.5     0.00502942     -5414.5122309009  5.67E-01
   136 Broy./Diag. 0.80E-01    1.5     0.00626651     -5414.7906749360 -2.78E-01
   137 Broy./Diag. 0.80E-01    1.5     0.00362578     -5413.3610637354  1.43E+00
   138 Broy./Diag. 0.80E-01    1.5     0.00143339     -5413.4603048405 -9.92E-02
   139 Broy./Diag. 0.80E-01    1.5     0.00238399     -5413.9349205696 -4.75E-01
   140 Broy./Diag. 0.80E-01    1.5     0.00402205     -5414.0086961275 -7.38E-02
   141 Broy./Diag. 0.80E-01    1.5     0.00256664     -5414.5971604266 -5.88E-01
   142 Broy./Diag. 0.80E-01    1.5     0.00215438     -5414.6731030475 -7.59E-02
   143 Broy./Diag. 0.80E-01    1.5     0.00387364     -5414.5530401578  1.20E-01
   144 Broy./Diag. 0.80E-01    1.5     0.00415203     -5416.0309215181 -1.48E+00
   145 Broy./Diag. 0.80E-01    1.5     0.01064418     -5416.5498770395 -5.19E-01
   146 Broy./Diag. 0.80E-01    1.5     0.00587005     -5413.8988616493  2.65E+00
   147 Broy./Diag. 0.80E-01    1.5     0.00211155     -5415.2883517773 -1.39E+00
   148 Broy./Diag. 0.80E-01    1.5     0.00573643     -5415.7239755707 -4.36E-01
   149 Broy./Diag. 0.80E-01    1.5     0.00893886     -5416.2955301184 -5.72E-01
   150 Broy./Diag. 0.80E-01    1.5     0.00402309     -5417.1530614266 -8.58E-01
   151 Broy./Diag. 0.80E-01    1.5     0.00260215     -5416.7723613302  3.81E-01
   152 Broy./Diag. 0.80E-01    1.5     0.00729676     -5417.0290075748 -2.57E-01
   153 Broy./Diag. 0.80E-01    1.5     0.00905789     -5416.2123397834  8.17E-01
   154 Broy./Diag. 0.80E-01    1.5     0.00535502     -5417.1585954781 -9.46E-01
   155 Broy./Diag. 0.80E-01    1.5     0.00403839     -5415.7897998014  1.37E+00
   156 Broy./Diag. 0.80E-01    1.5     0.00567516     -5416.0186395018 -2.29E-01
   157 Broy./Diag. 0.80E-01    1.5     0.00321262     -5416.3941418270 -3.76E-01
   158 Broy./Diag. 0.80E-01    1.5     0.00693421     -5415.4218172640  9.72E-01
   159 Broy./Diag. 0.80E-01    1.5     0.02064738     -5415.4232579377 -1.44E-03
   160 Broy./Diag. 0.80E-01    1.5     0.00657505     -5414.9503443967  4.73E-01
   161 Broy./Diag. 0.80E-01    1.5     0.00231116     -5415.2973832166 -3.47E-01
   162 Broy./Diag. 0.80E-01    1.5     0.00444794     -5415.5217705823 -2.24E-01
   163 Broy./Diag. 0.80E-01    1.5     0.01082787     -5415.8602263841 -3.38E-01
   164 Broy./Diag. 0.80E-01    1.5     0.00516816     -5414.8208556472  1.04E+00
   165 Broy./Diag. 0.80E-01    1.5     0.01053536     -5415.1606795970 -3.40E-01
   166 Broy./Diag. 0.80E-01    1.5     0.00758244     -5414.7307338087  4.30E-01
   167 Broy./Diag. 0.80E-01    1.5     0.00059345     -5413.6828602985  1.05E+00
   168 Broy./Diag. 0.80E-01    1.5     0.01530342     -5413.6159155817  6.69E-02
   169 Broy./Diag. 0.80E-01    1.5     0.00184960     -5414.1657347602 -5.50E-01
   170 Broy./Diag. 0.80E-01    1.5     0.00291746     -5414.1397742501  2.60E-02
   171 Broy./Diag. 0.80E-01    1.5     0.02112060     -5414.1534174213 -1.36E-02
   172 Broy./Diag. 0.80E-01    1.5     0.01214304     -5413.1274896431  1.03E+00
   173 Broy./Diag. 0.80E-01    1.5     0.00286884     -5413.8392879115 -7.12E-01
   174 Broy./Diag. 0.80E-01    1.5     0.00592824     -5413.8965089896 -5.72E-02
   175 Broy./Diag. 0.80E-01    1.5     0.01840071     -5414.3179213491 -4.21E-01
   176 Broy./Diag. 0.80E-01    1.5     0.01913002     -5415.7366023071 -1.42E+00
   177 Broy./Diag. 0.80E-01    1.5     0.01011370     -5415.3427722460  3.94E-01
   178 Broy./Diag. 0.80E-01    1.5     0.01011435     -5414.2659085654  1.08E+00
   179 Broy./Diag. 0.80E-01    1.5     0.03402451     -5413.3865302539  8.79E-01
   180 Broy./Diag. 0.80E-01    1.5     0.01125590     -5414.0022879120 -6.16E-01
   181 Broy./Diag. 0.80E-01    1.5     0.01496301     -5413.3280110562  6.74E-01
   182 Broy./Diag. 0.80E-01    1.5     0.00241518     -5414.3593502314 -1.03E+00
   183 Broy./Diag. 0.80E-01    1.5     0.00945966     -5414.6948573223 -3.36E-01
   184 Broy./Diag. 0.80E-01    1.5     0.01138535     -5414.0876167248  6.07E-01
   185 Broy./Diag. 0.80E-01    1.5     0.00062061     -5414.8519044620 -7.64E-01
   186 Broy./Diag. 0.80E-01    1.5     0.00350839     -5414.8164551264  3.54E-02
   187 Broy./Diag. 0.80E-01    1.5     0.00979890     -5414.3085706479  5.08E-01
   188 Broy./Diag. 0.80E-01    1.5     0.00656640     -5414.8183072294 -5.10E-01
   189 Broy./Diag. 0.80E-01    1.5     0.00915275     -5415.0825837934 -2.64E-01
   190 Broy./Diag. 0.80E-01    1.5     0.00630453     -5416.0454302972 -9.63E-01
   191 Broy./Diag. 0.80E-01    1.5     0.00096328     -5415.1697965787  8.76E-01
   192 Broy./Diag. 0.80E-01    1.5     0.00319787     -5414.9886610977  1.81E-01
   193 Broy./Diag. 0.80E-01    1.5     0.00592218     -5414.5399484113  4.49E-01
   194 Broy./Diag. 0.80E-01    1.5     0.00424695     -5414.8954573379 -3.56E-01
   195 Broy./Diag. 0.80E-01    1.5     0.00545873     -5414.4680612075  4.27E-01
   196 Broy./Diag. 0.80E-01    1.5     0.00455241     -5414.8034531439 -3.35E-01
   197 Broy./Diag. 0.80E-01    1.5     0.00576473     -5414.1132987019  6.90E-01
   198 Broy./Diag. 0.80E-01    1.5     0.00356561     -5414.6748685218 -5.62E-01
   199 Broy./Diag. 0.80E-01    1.5     0.00392973     -5414.2584559196  4.16E-01
   200 Broy./Diag. 0.80E-01    1.5     0.00039602     -5413.6814913478  5.77E-01
   201 Broy./Diag. 0.80E-01    1.5     0.00539659     -5413.5656905079  1.16E-01
   202 Broy./Diag. 0.80E-01    1.5     0.02082030     -5413.2796275097  2.86E-01
   203 Broy./Diag. 0.80E-01    1.5     0.01319631     -5414.5248691761 -1.25E+00
   204 Broy./Diag. 0.80E-01    1.5     0.01534989     -5414.0749326003  4.50E-01
   205 Broy./Diag. 0.80E-01    1.5     0.00272639     -5414.2077706049 -1.33E-01
   206 Broy./Diag. 0.80E-01    1.5     0.00546283     -5414.3085214257 -1.01E-01
   207 Broy./Diag. 0.80E-01    1.5     0.00609125     -5413.5999210299  7.09E-01
   208 Broy./Diag. 0.80E-01    1.5     0.00158838     -5413.7499915050 -1.50E-01
   209 Broy./Diag. 0.80E-01    1.5     0.01713868     -5413.7617861756 -1.18E-02
   210 Broy./Diag. 0.80E-01    1.5     0.00799241     -5413.7731258533 -1.13E-02
   211 Broy./Diag. 0.80E-01    1.5     0.01940494     -5413.6048862973  1.68E-01
   212 Broy./Diag. 0.80E-01    1.5     0.00333351     -5412.8254728815  7.79E-01
   213 Broy./Diag. 0.80E-01    1.5     0.01009325     -5413.3821361963 -5.57E-01
   214 Broy./Diag. 0.80E-01    1.5     0.00682421     -5414.3212082136 -9.39E-01
   215 Broy./Diag. 0.80E-01    1.5     0.00819513     -5413.0438431965  1.28E+00
   216 Broy./Diag. 0.80E-01    1.5     0.01006889     -5413.9172842897 -8.73E-01
   217 Broy./Diag. 0.80E-01    1.5     0.00650667     -5414.9075041055 -9.90E-01
   218 Broy./Diag. 0.80E-01    1.5     0.00734879     -5415.3681594779 -4.61E-01
   219 Broy./Diag. 0.80E-01    1.5     0.01233076     -5416.2268687200 -8.59E-01
   220 Broy./Diag. 0.80E-01    1.5     0.01410171     -5416.4665147230 -2.40E-01
   221 Broy./Diag. 0.80E-01    1.5     0.01592894     -5415.9975730289  4.69E-01
   222 Broy./Diag. 0.80E-01    1.5     0.00710686     -5416.6086518790 -6.11E-01
   223 Broy./Diag. 0.80E-01    1.5     0.00184587     -5417.4519210472 -8.43E-01
   224 Broy./Diag. 0.80E-01    1.5     0.00813507     -5417.3637120609  8.82E-02
   225 Broy./Diag. 0.80E-01    1.5     0.00791784     -5417.1024620129  2.61E-01
   226 Broy./Diag. 0.80E-01    1.5     0.00540081     -5416.6537738625  4.49E-01
   227 Broy./Diag. 0.80E-01    1.5     0.00862132     -5416.4229991831  2.31E-01
   228 Broy./Diag. 0.80E-01    1.5     0.01055168     -5416.0107126173  4.12E-01
   229 Broy./Diag. 0.80E-01    1.5     0.01017547     -5415.8976876886  1.13E-01
   230 Broy./Diag. 0.80E-01    1.5     0.00839808     -5415.2121871997  6.86E-01
   231 Broy./Diag. 0.80E-01    1.5     0.00467946     -5414.6531839032  5.59E-01
   232 Broy./Diag. 0.80E-01    1.5     0.00697281     -5415.1672409842 -5.14E-01
   233 Broy./Diag. 0.80E-01    1.5     0.00811586     -5414.7823813463  3.85E-01
   234 Broy./Diag. 0.80E-01    1.5     0.01010748     -5415.3965286006 -6.14E-01
   235 Broy./Diag. 0.80E-01    1.5     0.00135080     -5415.9577646307 -5.61E-01
   236 Broy./Diag. 0.80E-01    1.5     0.00298345     -5416.0117798807 -5.40E-02
   237 Broy./Diag. 0.80E-01    1.5     0.01321573     -5416.4359685050 -4.24E-01
   238 Broy./Diag. 0.80E-01    1.5     0.01795521     -5416.2305044913  2.05E-01
   239 Broy./Diag. 0.80E-01    1.5     0.00876137     -5416.6298538721 -3.99E-01
   240 Broy./Diag. 0.80E-01    1.5     0.00601379     -5416.3982845453  2.32E-01
   241 Broy./Diag. 0.80E-01    1.5     0.01689948     -5415.9117376135  4.87E-01
   242 Broy./Diag. 0.80E-01    1.5     0.00737401     -5415.6759349173  2.36E-01
   243 Broy./Diag. 0.80E-01    1.5     0.00414162     -5415.8069864736 -1.31E-01
   244 Broy./Diag. 0.80E-01    1.5     0.00471305     -5416.4191472529 -6.12E-01
   245 Broy./Diag. 0.80E-01    1.5     0.02844783     -5416.8214401662 -4.02E-01
   246 Broy./Diag. 0.80E-01    1.5     0.00239795     -5415.6700340653  1.15E+00
   247 Broy./Diag. 0.80E-01    1.5     0.01834741     -5415.7719660161 -1.02E-01
   248 Broy./Diag. 0.80E-01    1.5     0.00958099     -5417.0599939927 -1.29E+00
   249 Broy./Diag. 0.80E-01    1.5     0.00766284     -5417.5548446076 -4.95E-01
   250 Broy./Diag. 0.80E-01    1.5     0.00353035     -5417.1820909329  3.73E-01
   251 Broy./Diag. 0.80E-01    1.5     0.00931210     -5417.8449968931 -6.63E-01
   252 Broy./Diag. 0.80E-01    1.5     0.00770597     -5418.1150235561 -2.70E-01
   253 Broy./Diag. 0.80E-01    1.5     0.00147048     -5417.8172837528  2.98E-01
   254 Broy./Diag. 0.80E-01    1.5     0.00566300     -5417.6597612186  1.58E-01
   255 Broy./Diag. 0.80E-01    1.5     0.01521016     -5417.4894497085  1.70E-01
   256 Broy./Diag. 0.80E-01    1.5     0.00629049     -5417.4312845207  5.82E-02
   257 Broy./Diag. 0.80E-01    1.5     0.02113360     -5417.9854075124 -5.54E-01
   258 Broy./Diag. 0.80E-01    1.5     0.01060838     -5416.3027825407  1.68E+00
   259 Broy./Diag. 0.80E-01    1.5     0.00955675     -5417.1236825834 -8.21E-01
   260 Broy./Diag. 0.80E-01    1.5     0.00715724     -5417.7268651724 -6.03E-01
   261 Broy./Diag. 0.80E-01    1.5     0.01271667     -5418.0012479667 -2.74E-01
   262 Broy./Diag. 0.80E-01    1.5     0.00619814     -5417.6613367233  3.40E-01
   263 Broy./Diag. 0.80E-01    1.5     0.00908405     -5418.1479400235 -4.87E-01
   264 Broy./Diag. 0.80E-01    1.5     0.01013590     -5417.2598401132  8.88E-01
   265 Broy./Diag. 0.80E-01    1.5     0.00733222     -5416.8479298055  4.12E-01
   266 Broy./Diag. 0.80E-01    1.5     0.00067296     -5416.6868911173  1.61E-01
   267 Broy./Diag. 0.80E-01    1.5     0.00618977     -5416.6936110839 -6.72E-03
   268 Broy./Diag. 0.80E-01    1.5     0.00635528     -5416.8895245535 -1.96E-01
   269 Broy./Diag. 0.80E-01    1.5     0.01142193     -5416.7388307323  1.51E-01
   270 Broy./Diag. 0.80E-01    1.5     0.00934590     -5415.8990524995  8.40E-01
   271 Broy./Diag. 0.80E-01    1.5     0.00325833     -5416.8998604927 -1.00E+00
   272 Broy./Diag. 0.80E-01    1.5     0.00618008     -5416.6725164217  2.27E-01
   273 Broy./Diag. 0.80E-01    1.5     0.02035763     -5415.4204221960  1.25E+00
   274 Broy./Diag. 0.80E-01    1.5     0.01479809     -5415.6235854294 -2.03E-01
   275 Broy./Diag. 0.80E-01    1.5     0.03435937     -5415.3463154143  2.77E-01
   276 Broy./Diag. 0.80E-01    1.5     0.00257718     -5414.0108097371  1.34E+00
   277 Broy./Diag. 0.80E-01    1.5     0.00638333     -5413.7350802033  2.76E-01
   278 Broy./Diag. 0.80E-01    1.5     0.00389420     -5413.9595506284 -2.24E-01
   279 Broy./Diag. 0.80E-01    1.5     0.00882253     -5413.4028006686  5.57E-01
   280 Broy./Diag. 0.80E-01    1.5     0.00742469     -5413.7903802062 -3.88E-01
   281 Broy./Diag. 0.80E-01    1.5     0.00565313     -5413.5303680167  2.60E-01
   282 Broy./Diag. 0.80E-01    1.5     0.00351886     -5413.4058996522  1.24E-01
   283 Broy./Diag. 0.80E-01    1.5     0.01006690     -5413.1168840725  2.89E-01
   284 Broy./Diag. 0.80E-01    1.5     0.00977555     -5412.9971481533  1.20E-01
   285 Broy./Diag. 0.80E-01    1.5     0.00950400     -5413.8503677709 -8.53E-01
   286 Broy./Diag. 0.80E-01    1.5     0.01300783     -5413.8978157125 -4.74E-02
   287 Broy./Diag. 0.80E-01    1.5     0.02345380     -5413.9725809480 -7.48E-02
   288 Broy./Diag. 0.80E-01    1.5     0.01380048     -5414.6089987445 -6.36E-01
   289 Broy./Diag. 0.80E-01    1.5     0.02061955     -5413.8538724769  7.55E-01
   290 Broy./Diag. 0.80E-01    1.5     0.00790929     -5416.2526233125 -2.40E+00
   291 Broy./Diag. 0.80E-01    1.5     0.00320134     -5416.5431859098 -2.91E-01
   292 Broy./Diag. 0.80E-01    1.5     0.00653192     -5416.8250073314 -2.82E-01
   293 Broy./Diag. 0.80E-01    1.5     0.00259123     -5416.5759182958  2.49E-01
   294 Broy./Diag. 0.80E-01    1.5     0.00588366     -5416.5618251722  1.41E-02
   295 Broy./Diag. 0.80E-01    1.5     0.00165269     -5415.9720194973  5.90E-01
   296 Broy./Diag. 0.80E-01    1.5     0.01384930     -5415.3101581416  6.62E-01
   297 Broy./Diag. 0.80E-01    1.5     0.00517294     -5415.2306033890  7.96E-02
   298 Broy./Diag. 0.80E-01    1.5     0.00334659     -5415.5071014931 -2.76E-01
   299 Broy./Diag. 0.80E-01    1.5     0.00322840     -5415.8622668561 -3.55E-01
   300 Broy./Diag. 0.80E-01    1.5     0.00629386     -5415.9793940258 -1.17E-01
   301 Broy./Diag. 0.80E-01    1.5     0.01229083     -5415.8574685788  1.22E-01
   302 Broy./Diag. 0.80E-01    1.5     0.01217956     -5416.2463100041 -3.89E-01
   303 Broy./Diag. 0.80E-01    1.5     0.02156530     -5415.8966130475  3.50E-01
   304 Broy./Diag. 0.80E-01    1.5     0.01815571     -5416.5404881183 -6.44E-01
   305 Broy./Diag. 0.80E-01    1.5     0.00449708     -5416.1833624174  3.57E-01
   306 Broy./Diag. 0.80E-01    1.5     0.04043892     -5416.4758277211 -2.92E-01
   307 Broy./Diag. 0.80E-01    1.5     0.01128916     -5414.9251914301  1.55E+00
   308 Broy./Diag. 0.80E-01    1.5     0.00516708     -5415.0952015126 -1.70E-01
   309 Broy./Diag. 0.80E-01    1.5     0.01284694     -5414.7089282748  3.86E-01
   310 Broy./Diag. 0.80E-01    1.5     0.02127528     -5413.9124894114  7.96E-01
   311 Broy./Diag. 0.80E-01    1.5     0.00366744     -5415.4255406237 -1.51E+00
   312 Broy./Diag. 0.80E-01    1.5     0.00298916     -5415.5586182331 -1.33E-01
   313 Broy./Diag. 0.80E-01    1.5     0.02870106     -5415.3555725867  2.03E-01
   314 Broy./Diag. 0.80E-01    1.5     0.00543330     -5416.4295101962 -1.07E+00
   315 Broy./Diag. 0.80E-01    1.5     0.00993719     -5416.0544183400  3.75E-01
   316 Broy./Diag. 0.80E-01    1.5     0.00338456     -5415.3921048155  6.62E-01
   317 Broy./Diag. 0.80E-01    1.5     0.00859078     -5415.6762884966 -2.84E-01
   318 Broy./Diag. 0.80E-01    1.5     0.00706280     -5415.7431670918 -6.69E-02
   319 Broy./Diag. 0.80E-01    1.5     0.00219864     -5415.1796121689  5.64E-01
   320 Broy./Diag. 0.80E-01    1.5     0.00236477     -5415.1283981586  5.12E-02
   321 Broy./Diag. 0.80E-01    1.5     0.00298848     -5415.3398648585 -2.11E-01
   322 Broy./Diag. 0.80E-01    1.5     0.00450292     -5415.0811093111  2.59E-01
   323 Broy./Diag. 0.80E-01    1.5     0.00623454     -5415.4249988878 -3.44E-01
   324 Broy./Diag. 0.80E-01    1.5     0.02442883     -5416.0664757232 -6.41E-01
   325 Broy./Diag. 0.80E-01    1.5     0.00535724     -5415.8131789372  2.53E-01
   326 Broy./Diag. 0.80E-01    1.5     0.00635618     -5415.7344217761  7.88E-02
   327 Broy./Diag. 0.80E-01    1.5     0.00741515     -5414.3430747858  1.39E+00
   328 Broy./Diag. 0.80E-01    1.5     0.01162225     -5414.6331072007 -2.90E-01
   329 Broy./Diag. 0.80E-01    1.5     0.00944134     -5416.0241891972 -1.39E+00
   330 Broy./Diag. 0.80E-01    1.5     0.01171790     -5415.6979653044  3.26E-01
   331 Broy./Diag. 0.80E-01    1.5     0.00381292     -5416.7400236170 -1.04E+00
   332 Broy./Diag. 0.80E-01    1.5     0.01508582     -5416.1425687170  5.97E-01
   333 Broy./Diag. 0.80E-01    1.5     0.03548203     -5416.1928563532 -5.03E-02
   334 Broy./Diag. 0.80E-01    1.5     0.01166863     -5417.8690225273 -1.68E+00
   335 Broy./Diag. 0.80E-01    1.5     0.00912779     -5416.9781195443  8.91E-01
   336 Broy./Diag. 0.80E-01    1.5     0.02038121     -5416.7105726678  2.68E-01
   337 Broy./Diag. 0.80E-01    1.5     0.00341989     -5415.4209240384  1.29E+00
   338 Broy./Diag. 0.80E-01    1.5     0.00813661     -5415.0135885602  4.07E-01
   339 Broy./Diag. 0.80E-01    1.5     0.01027469     -5414.8453784014  1.68E-01
   340 Broy./Diag. 0.80E-01    1.5     0.01584418     -5414.4410398892  4.04E-01
   341 Broy./Diag. 0.80E-01    1.5     0.00410015     -5415.2113954517 -7.70E-01
   342 Broy./Diag. 0.80E-01    1.5     0.00743718     -5415.0345122762  1.77E-01
   343 Broy./Diag. 0.80E-01    1.5     0.02783175     -5415.6444505886 -6.10E-01
   344 Broy./Diag. 0.80E-01    1.5     0.00912944     -5415.7057564601 -6.13E-02
   345 Broy./Diag. 0.80E-01    1.5     0.01757087     -5416.0595944910 -3.54E-01
   346 Broy./Diag. 0.80E-01    1.5     0.02332427     -5415.6905650051  3.69E-01
   347 Broy./Diag. 0.80E-01    1.5     0.01100109     -5416.8741274589 -1.18E+00
   348 Broy./Diag. 0.80E-01    1.5     0.02127400     -5416.6152029949  2.59E-01
   349 Broy./Diag. 0.80E-01    1.5     0.01493575     -5418.4476087707 -1.83E+00
   350 Broy./Diag. 0.80E-01    1.5     0.00962711     -5418.8450299057 -3.97E-01
   351 Broy./Diag. 0.80E-01    1.5     0.02010962     -5418.8414223077  3.61E-03
   352 Broy./Diag. 0.80E-01    1.5     0.00875017     -5417.9752587682  8.66E-01
   353 Broy./Diag. 0.80E-01    1.5     0.06269230     -5418.1775560358 -2.02E-01
   354 Broy./Diag. 0.80E-01    1.5     0.00612208     -5416.2720363073  1.91E+00
   355 Broy./Diag. 0.80E-01    1.5     0.00918326     -5416.5725945225 -3.01E-01
   356 Broy./Diag. 0.80E-01    1.5     0.01103313     -5415.8110136749  7.62E-01
   357 Broy./Diag. 0.80E-01    1.5     0.05300286     -5414.0723467173  1.74E+00
   358 Broy./Diag. 0.80E-01    1.5     0.02286319     -5416.4295518332 -2.36E+00
   359 Broy./Diag. 0.80E-01    1.5     0.03047491     -5415.3282818319  1.10E+00
   360 Broy./Diag. 0.80E-01    1.5     0.02151405     -5417.3651716090 -2.04E+00
   361 Broy./Diag. 0.80E-01    1.5     0.00734720     -5417.6913512516 -3.26E-01
   362 Broy./Diag. 0.80E-01    1.5     0.00599770     -5417.3911130692  3.00E-01
   363 Broy./Diag. 0.80E-01    1.5     0.00304100     -5418.0442180261 -6.53E-01
   364 Broy./Diag. 0.80E-01    1.5     0.00452366     -5417.4785507296  5.66E-01
   365 Broy./Diag. 0.80E-01    1.5     0.00357377     -5416.8937399305  5.85E-01
   366 Broy./Diag. 0.80E-01    1.5     0.01636475     -5416.7625005557  1.31E-01
   367 Broy./Diag. 0.80E-01    1.5     0.00089792     -5417.4203393757 -6.58E-01
   368 Broy./Diag. 0.80E-01    1.5     0.01726229     -5417.2828978972  1.37E-01
   369 Broy./Diag. 0.80E-01    1.5     0.00535888     -5417.1247933200  1.58E-01
   370 Broy./Diag. 0.80E-01    1.7     0.01810984     -5416.9456102890  1.79E-01
   371 Broy./Diag. 0.80E-01    1.5     0.00258327     -5417.1085465974 -1.63E-01
   372 Broy./Diag. 0.80E-01    1.5     0.01297049     -5417.2839481507 -1.75E-01
   373 Broy./Diag. 0.80E-01    1.5     0.01732892     -5417.4693164222 -1.85E-01
   374 Broy./Diag. 0.80E-01    1.5     0.01284925     -5416.3122014936  1.16E+00
   375 Broy./Diag. 0.80E-01    1.5     0.00842121     -5416.1241072312  1.88E-01
   376 Broy./Diag. 0.80E-01    1.5     0.01197101     -5416.6959760696 -5.72E-01
   377 Broy./Diag. 0.80E-01    1.5     0.01407752     -5417.0232209224 -3.27E-01
   378 Broy./Diag. 0.80E-01    1.5     0.00693739     -5417.3567165709 -3.33E-01
