 DBCSR| CPU Multiplication driver                                           XSMM (U)
 DBCSR| Multrec recursion limit                                              512 (U)
 DBCSR| Multiplication stack size                                           1000 (D)
 DBCSR| Maximum elements for images                                    UNLIMITED (U)
 DBCSR| Multiplicative factor virtual images                                   1 (U)
 DBCSR| Use multiplication densification                                       T (D)
 DBCSR| Multiplication size stacks                                             3 (U)
 DBCSR| Use memory pool for CPU allocation                                     F (U)
 DBCSR| Number of 3D layers                                               SINGLE (U)
 DBCSR| Use MPI memory allocation                                              F (U)
 DBCSR| Use RMA algorithm                                                      F (U)
 DBCSR| Use Communication thread                                               T (U)
 DBCSR| Communication thread load                                             87 (D)
 DBCSR| MPI: My process id                                                     0
 DBCSR| MPI: Number of processes                                             128
 DBCSR| OMP: Current number of threads                                         1
 DBCSR| OMP: Max number of threads                                             1
 DBCSR| Split modifier for TAS multiplication algorithm                  1.0E+00 (U)


  **** **** ******  **  PROGRAM STARTED AT               2023-02-14 14:19:46.073
 ***** ** ***  *** **   PROGRAM STARTED ON                             nid005262
 **    ****   ******    PROGRAM STARTED BY                                cahart
 ***** **    ** ** **   PROGRAM PROCESS ID                                248049
  **** **  *******  **  PROGRAM STARTED IN /mnt/lustre/a2fs-work2/work/e05/e05/c
                                           ahart/postdoc/masters/ni/archer2/slab
                                           /optimise/alpha-beta/scf_5e-4_mos-100
                                           0_temp-2000_spin-0.7-0.5_periodic-xyz
                                           /search/1.0E-2_4.0E-01

 CP2K| version string:                 CP2K version 2023.1 (Development Version)
 CP2K| source code revision number:                                  git:964cd58
 CP2K| cp2kflags: omp libint fftw3 libxc elpa parallel scalapack xsmm plumed2 mk
 CP2K|            l
 CP2K| is freely available from                            https://www.cp2k.org/
 CP2K| Program compiled at                          Mon 13 Feb 17:05:14 GMT 2023
 CP2K| Program compiled on                                                  ln01
 CP2K| Program compiled for                                              ARCHER2
 CP2K| Data directory path    /work/e05/e05/cahart/cp2k/cp2k-2023.1/cp2k-2023.1-
 CP2K| Input file name                                                  cp2k.inp

 GLOBAL| Force Environment number                                              1
 GLOBAL| Basis set file name                                        BASIS_MOLOPT
 GLOBAL| Potential file name                                      GTH_POTENTIALS
 GLOBAL| MM Potential file name                                     MM_POTENTIAL
 GLOBAL| Coordinate file name                                      __STD_INPUT__
 GLOBAL| Method name                                                        CP2K
 GLOBAL| Project name                                                    Ni_bulk
 GLOBAL| Run type                                                         ENERGY
 GLOBAL| FFT library                                                       FFTW3
 GLOBAL| Diagonalization library                                            ELPA
 GLOBAL| DGEMM library                                                      BLAS
 GLOBAL| Minimum number of eigenvectors for ELPA usage                        16
 GLOBAL| Orthonormality check for eigenvectors                          DISABLED
 GLOBAL| Matrix multiplication library                                 ScaLAPACK
 GLOBAL| All-to-all communication in single precision                          F
 GLOBAL| FFTs using library dependent lengths                                  F
 GLOBAL| Grid backend                                                       AUTO
 GLOBAL| Global print level                                               MEDIUM
 GLOBAL| MPI I/O enabled                                                       T
 GLOBAL| Total number of message passing processes                           128
 GLOBAL| Number of threads for this process                                    1
 GLOBAL| This output is from process                                           0
 GLOBAL| Stack size for threads created by OpenMP (OMP_STACKSIZE)        default
 GLOBAL| CPU model name                          AMD EPYC 7742 64-Core Processor
 GLOBAL| CPUID                                                              1002

 MEMORY| system memory details [Kb]
 MEMORY|                        rank 0           min           max       average
 MEMORY| MemTotal            263528084     263528084     263528084     263528084
 MEMORY| MemFree             238439408     238439408     238439408     238439408
 MEMORY| Buffers                 24884         24884         24884         24884
 MEMORY| Cached                 804164        804164        804164        804164
 MEMORY| Slab                  1663148       1663148       1663148       1663148
 MEMORY| SReclaimable           106880        106880        106880        106880
 MEMORY| MemLikelyFree       239375336     239375336     239375336     239375336


 *** Fundamental physical constants (SI units) ***

 *** Literature: B. J. Mohr and B. N. Taylor,
 ***             CODATA recommended values of the fundamental physical
 ***             constants: 2006, Web Version 5.1
 ***             http://physics.nist.gov/constants

 Speed of light in vacuum [m/s]                             2.99792458000000E+08
 Magnetic constant or permeability of vacuum [N/A**2]       1.25663706143592E-06
 Electric constant or permittivity of vacuum [F/m]          8.85418781762039E-12
 Planck constant (h) [J*s]                                  6.62606896000000E-34
 Planck constant (h-bar) [J*s]                              1.05457162825177E-34
 Elementary charge [C]                                      1.60217648700000E-19
 Electron mass [kg]                                         9.10938215000000E-31
 Electron g factor [ ]                                     -2.00231930436220E+00
 Proton mass [kg]                                           1.67262163700000E-27
 Fine-structure constant                                    7.29735253760000E-03
 Rydberg constant [1/m]                                     1.09737315685270E+07
 Avogadro constant [1/mol]                                  6.02214179000000E+23
 Boltzmann constant [J/K]                                   1.38065040000000E-23
 Atomic mass unit [kg]                                      1.66053878200000E-27
 Bohr radius [m]                                            5.29177208590000E-11

 *** Conversion factors ***

 [u] -> [a.u.]                                              1.82288848426455E+03
 [Angstrom] -> [Bohr] = [a.u.]                              1.88972613288564E+00
 [a.u.] = [Bohr] -> [Angstrom]                              5.29177208590000E-01
 [a.u.] -> [s]                                              2.41888432650478E-17
 [a.u.] -> [fs]                                             2.41888432650478E-02
 [a.u.] -> [J]                                              4.35974393937059E-18
 [a.u.] -> [N]                                              8.23872205491840E-08
 [a.u.] -> [K]                                              3.15774647902944E+05
 [a.u.] -> [kJ/mol]                                         2.62549961709828E+03
 [a.u.] -> [kcal/mol]                                       6.27509468713739E+02
 [a.u.] -> [Pa]                                             2.94210107994716E+13
 [a.u.] -> [bar]                                            2.94210107994716E+08
 [a.u.] -> [atm]                                            2.90362800883016E+08
 [a.u.] -> [eV]                                             2.72113838565563E+01
 [a.u.] -> [Hz]                                             6.57968392072181E+15
 [a.u.] -> [1/cm] (wave numbers)                            2.19474631370540E+05
 [a.u./Bohr**2] -> [1/cm]                                   5.14048714338585E+03
 

 CELL_TOP| Volume [angstrom^3]:                                       983.249569
 CELL_TOP| Vector a [angstrom     7.012     0.000     0.000   |a| =     7.011596
 CELL_TOP| Vector b [angstrom     0.000     7.012     0.000   |b| =     7.011596
 CELL_TOP| Vector c [angstrom     0.000     0.000    20.000   |c| =    20.000000
 CELL_TOP| Angle (b,c), alpha [degree]:                                90.000000
 CELL_TOP| Angle (a,c), beta  [degree]:                                90.000000
 CELL_TOP| Angle (a,b), gamma [degree]:                                90.000000
 CELL_TOP| Numerically orthorhombic:                                         YES
 CELL_TOP| Periodicity                                                       XYZ

 GENERATE|  Preliminary Number of Bonds generated:                             0
 GENERATE|  Achieved consistency in connectivity generation.

 CELL| Volume [angstrom^3]:                                           983.249569
 CELL| Vector a [angstrom]:       7.012     0.000     0.000   |a| =     7.011596
 CELL| Vector b [angstrom]:       0.000     7.012     0.000   |b| =     7.011596
 CELL| Vector c [angstrom]:       0.000     0.000    20.000   |c| =    20.000000
 CELL| Angle (b,c), alpha [degree]:                                    90.000000
 CELL| Angle (a,c), beta  [degree]:                                    90.000000
 CELL| Angle (a,b), gamma [degree]:                                    90.000000
 CELL| Numerically orthorhombic:                                             YES
 CELL| Periodicity                                                           XYZ

 CELL_REF| Volume [angstrom^3]:                                       983.249569
 CELL_REF| Vector a [angstrom     7.012     0.000     0.000   |a| =     7.011596
 CELL_REF| Vector b [angstrom     0.000     7.012     0.000   |b| =     7.011596
 CELL_REF| Vector c [angstrom     0.000     0.000    20.000   |c| =    20.000000
 CELL_REF| Angle (b,c), alpha [degree]:                                90.000000
 CELL_REF| Angle (a,c), beta  [degree]:                                90.000000
 CELL_REF| Angle (a,b), gamma [degree]:                                90.000000
 CELL_REF| Numerically orthorhombic:                                         YES
 CELL_REF| Periodicity                                                       XYZ

 *** WARNING in cryssym.F:165 :: Symmetry library SPGLIB not available ***


 *******************************************************************************
                                    Kpoints
 *******************************************************************************
 BRILLOUIN| K-point scheme                                        Monkhorst-Pack
 BRILLOUIN| K-Point grid                                             4    4    1
 BRILLOUIN| Accuracy in Symmetry determination                      0.100000E-05
 BRILLOUIN| K-Point point group symmetrization                               OFF
 BRILLOUIN| Wavefunction type                                            COMPLEX
 BRILLOUIN| List of Kpoints [2 Pi/Bohr]                                        8
 BRILLOUIN| Number           Weight            X              Y              Z
 BRILLOUIN|     1           0.12500       -0.37500       -0.37500        0.00000
 BRILLOUIN|     2           0.12500       -0.37500       -0.12500        0.00000
 BRILLOUIN|     3           0.12500       -0.37500        0.12500        0.00000
 BRILLOUIN|     4           0.12500       -0.37500        0.37500        0.00000
 BRILLOUIN|     5           0.12500       -0.12500       -0.37500        0.00000
 BRILLOUIN|     6           0.12500       -0.12500       -0.12500        0.00000
 BRILLOUIN|     7           0.12500       -0.12500        0.12500        0.00000
 BRILLOUIN|     8           0.12500       -0.12500        0.37500        0.00000
 *******************************************************************************

 *******************************************************************************
 *******************************************************************************
 **                                                                           **
 **     #####                         ##              ##                      **
 **    ##   ##            ##          ##              ##                      **
 **   ##     ##                       ##            ######                    **
 **   ##     ##  ##   ##  ##   #####  ##  ##   ####   ##    #####    #####    **
 **   ##     ##  ##   ##  ##  ##      ## ##   ##      ##   ##   ##  ##   ##   **
 **   ##  ## ##  ##   ##  ##  ##      ####     ###    ##   ######   ######    **
 **    ##  ###   ##   ##  ##  ##      ## ##      ##   ##   ##       ##        **
 **     #######   #####   ##   #####  ##  ##  ####    ##    #####   ##        **
 **           ##                                                    ##        **
 **                                                                           **
 **                                                ... make the atoms dance   **
 **                                                                           **
 **            Copyright (C) by CP2K developers group (2000-2023)             **
 **                      J. Chem. Phys. 152, 194103 (2020)                    **
 **                                                                           **
 *******************************************************************************

 *** WARNING in qs_environment.F:1456 :: Number of electrons will be ***
 *** overwritten by NELEC_ALPHA and NELEC_BETA, multiplicity will be ***
 *** ignored.                                                        ***

 Number of electrons should be                                               576
 Sum of NELEC_ALPHA and NELEC_BETA is                                    576.000

 *** WARNING in qs_environment.F:1488 :: NELEC_ALPHA is not an integer, ***
 *** many features will not be supported.                               ***


 *** WARNING in qs_environment.F:1500 :: NELEC_BETA is not an integer, ***
 *** many features will not be supported.                              ***


 *** WARNING in qs_environment.F:1532 :: More ADDED_MOs requested for beta ***
 *** spin than available.                                                  ***


 *** WARNING in qs_environment.F:1548 :: More added MOs requested than     ***
 *** available. The full set of unoccupied MOs will be used. Use           ***
 *** 'ADDED_MOS -1' to always use all available MOs and to get rid of this ***
 *** warning.                                                              ***


 DFT| Spin unrestricted (spin-polarized) Kohn-Sham calculation               UKS
 DFT| Multiplicity                                                             1
 DFT| Number of spin states                                                    2
 DFT| Charge                                                                   0
 DFT| Self-interaction correction (SIC)                                       NO
 DFT| Cutoffs: density                                              1.000000E-10
 DFT|          gradient                                             1.000000E-10
 DFT|          tau                                                  1.000000E-10
 DFT|          cutoff_smoothing_range                               0.000000E+00
 DFT| XC density smoothing                                                  NONE
 DFT| XC derivatives                                                          PW

 FUNCTIONAL| PBE:
 FUNCTIONAL| J.P.Perdew, K.Burke, M.Ernzerhof, Phys. Rev. Letter, vol. 77, n 18,
 FUNCTIONAL|  pp. 3865-3868, (1996){spin polarized}                             

 vdW POTENTIAL|                                                   Pair Potential
 vdW POTENTIAL|          DFT-D3 (Version 3.1)
 vdW POTENTIAL|          Potential Form: S. Grimme et al, JCP 132: 154104 (2010)
 vdW POTENTIAL|          Zero Damping
 vdW POTENTIAL|          Cutoff Radius [Bohr]:                             20.00
 vdW POTENTIAL|          s6 Scaling Factor:                               1.0000
 vdW POTENTIAL|          sr6 Scaling Factor:                              1.2170
 vdW POTENTIAL|          s8 Scaling Factor:                               0.7220
 vdW POTENTIAL|          Cutoff for CN calculation:                   0.1000E-05

 QS| Method:                                                                 GPW
 QS| Density plane wave grid type                        NON-SPHERICAL FULLSPACE
 QS| Number of grid levels:                                                    5
 QS| Density cutoff [a.u.]:                                                300.0
 QS| Multi grid cutoff [a.u.]: 1) grid level                               300.0
 QS|                           2) grid level                               100.0
 QS|                           3) grid level                                33.3
 QS|                           4) grid level                                11.1
 QS|                           5) grid level                                 3.7
 QS| Grid level progression factor:                                          3.0
 QS| Relative density cutoff [a.u.]:                                        30.0
 QS| Interaction thresholds: eps_pgf_orb:                                1.0E-06
 QS|                         eps_filter_matrix:                          0.0E+00
 QS|                         eps_core_charge:                            1.0E-14
 QS|                         eps_rho_gspace:                             1.0E-12
 QS|                         eps_rho_rspace:                             1.0E-12
 QS|                         eps_gvg_rspace:                             1.0E-06
 QS|                         eps_ppl:                                    1.0E-02
 QS|                         eps_ppnl:                                   1.0E-08


 ATOMIC KIND INFORMATION

  1. Atomic kind: Ni_i                                  Number of atoms:      16

     Orbital Basis Set                                        DZVP-MOLOPT-SR-GTH

       Number of orbital shell sets:                                           1
       Number of orbital shells:                                               8
       Number of primitive Cartesian functions:                                6
       Number of Cartesian basis functions:                                   31
       Number of spherical basis functions:                                   26
       Norm type:                                                              2

       Normalised Cartesian orbitals:

                        Set   Shell   Orbital            Exponent    Coefficient

                          1       1    2s               10.077428      -0.684558
                                                         5.847736      -0.844524
                                                         2.494033       1.088856
                                                         0.988355       0.395503
                                                         0.344978       0.010224
                                                         0.099466      -0.003250

                          1       2    3s               10.077428       0.096747
                                                         5.847736       0.162504
                                                         2.494033      -0.297192
                                                         0.988355      -0.319752
                                                         0.344978       0.088318
                                                         0.099466       0.118587

                          1       3    4s               10.077428       0.036437
                                                         5.847736      -0.381480
                                                         2.494033       0.003759
                                                         0.988355      -1.048256
                                                         0.344978       0.855825
                                                         0.099466      -0.176350

                          1       4    3px              10.077428      -3.133913
                                                         5.847736       3.027656
                                                         2.494033       2.353227
                                                         0.988355       0.554184
                                                         0.344978       0.019462
                                                         0.099466      -0.000291
                          1       4    3py              10.077428      -3.133913
                                                         5.847736       3.027656
                                                         2.494033       2.353227
                                                         0.988355       0.554184
                                                         0.344978       0.019462
                                                         0.099466      -0.000291
                          1       4    3pz              10.077428      -3.133913
                                                         5.847736       3.027656
                                                         2.494033       2.353227
                                                         0.988355       0.554184
                                                         0.344978       0.019462
                                                         0.099466      -0.000291

                          1       5    4px              10.077428      -0.112729
                                                         5.847736      -0.114008
                                                         2.494033      -0.347303
                                                         0.988355      -0.110323
                                                         0.344978       0.154096
                                                         0.099466       0.058386
                          1       5    4py              10.077428      -0.112729
                                                         5.847736      -0.114008
                                                         2.494033      -0.347303
                                                         0.988355      -0.110323
                                                         0.344978       0.154096
                                                         0.099466       0.058386
                          1       5    4pz              10.077428      -0.112729
                                                         5.847736      -0.114008
                                                         2.494033      -0.347303
                                                         0.988355      -0.110323
                                                         0.344978       0.154096
                                                         0.099466       0.058386

                          1       6    4dx2             10.077428       8.232726
                                                         5.847736       9.105758
                                                         2.494033       2.849835
                                                         0.988355       0.554319
                                                         0.344978       0.067245
                                                         0.099466       0.001940
                          1       6    4dxy             10.077428      14.259500
                                                         5.847736      15.771636
                                                         2.494033       4.936060
                                                         0.988355       0.960109
                                                         0.344978       0.116472
                                                         0.099466       0.003360
                          1       6    4dxz             10.077428      14.259500
                                                         5.847736      15.771636
                                                         2.494033       4.936060
                                                         0.988355       0.960109
                                                         0.344978       0.116472
                                                         0.099466       0.003360
                          1       6    4dy2             10.077428       8.232726
                                                         5.847736       9.105758
                                                         2.494033       2.849835
                                                         0.988355       0.554319
                                                         0.344978       0.067245
                                                         0.099466       0.001940
                          1       6    4dyz             10.077428      14.259500
                                                         5.847736      15.771636
                                                         2.494033       4.936060
                                                         0.988355       0.960109
                                                         0.344978       0.116472
                                                         0.099466       0.003360
                          1       6    4dz2             10.077428       8.232726
                                                         5.847736       9.105758
                                                         2.494033       2.849835
                                                         0.988355       0.554319
                                                         0.344978       0.067245
                                                         0.099466       0.001940

                          1       7    5dx2             10.077428      -2.715373
                                                         5.847736      -4.020640
                                                         2.494033      -1.397569
                                                         0.988355      -0.076143
                                                         0.344978       0.033435
                                                         0.099466       0.026032
                          1       7    5dxy             10.077428      -4.703164
                                                         5.847736      -6.963952
                                                         2.494033      -2.420661
                                                         0.988355      -0.131883
                                                         0.344978       0.057911
                                                         0.099466       0.045088
                          1       7    5dxz             10.077428      -4.703164
                                                         5.847736      -6.963952
                                                         2.494033      -2.420661
                                                         0.988355      -0.131883
                                                         0.344978       0.057911
                                                         0.099466       0.045088
                          1       7    5dy2             10.077428      -2.715373
                                                         5.847736      -4.020640
                                                         2.494033      -1.397569
                                                         0.988355      -0.076143
                                                         0.344978       0.033435
                                                         0.099466       0.026032
                          1       7    5dyz             10.077428      -4.703164
                                                         5.847736      -6.963952
                                                         2.494033      -2.420661
                                                         0.988355      -0.131883
                                                         0.344978       0.057911
                                                         0.099466       0.045088
                          1       7    5dz2             10.077428      -2.715373
                                                         5.847736      -4.020640
                                                         2.494033      -1.397569
                                                         0.988355      -0.076143
                                                         0.344978       0.033435
                                                         0.099466       0.026032

                          1       8    5fx3             10.077428      -0.467694
                                                         5.847736       0.618100
                                                         2.494033       0.066069
                                                         0.988355       0.262898
                                                         0.344978       0.004720
                                                         0.099466       0.007748
                          1       8    5fx2y            10.077428      -1.045795
                                                         5.847736       1.382114
                                                         2.494033       0.147734
                                                         0.988355       0.587859
                                                         0.344978       0.010555
                                                         0.099466       0.017325
                          1       8    5fx2z            10.077428      -1.045795
                                                         5.847736       1.382114
                                                         2.494033       0.147734
                                                         0.988355       0.587859
                                                         0.344978       0.010555
                                                         0.099466       0.017325
                          1       8    5fxy2            10.077428      -1.045795
                                                         5.847736       1.382114
                                                         2.494033       0.147734
                                                         0.988355       0.587859
                                                         0.344978       0.010555
                                                         0.099466       0.017325
                          1       8    5fxyz            10.077428      -1.811371
                                                         5.847736       2.393892
                                                         2.494033       0.255883
                                                         0.988355       1.018201
                                                         0.344978       0.018282
                                                         0.099466       0.030008
                          1       8    5fxz2            10.077428      -1.045795
                                                         5.847736       1.382114
                                                         2.494033       0.147734
                                                         0.988355       0.587859
                                                         0.344978       0.010555
                                                         0.099466       0.017325
                          1       8    5fy3             10.077428      -0.467694
                                                         5.847736       0.618100
                                                         2.494033       0.066069
                                                         0.988355       0.262898
                                                         0.344978       0.004720
                                                         0.099466       0.007748
                          1       8    5fy2z            10.077428      -1.045795
                                                         5.847736       1.382114
                                                         2.494033       0.147734
                                                         0.988355       0.587859
                                                         0.344978       0.010555
                                                         0.099466       0.017325
                          1       8    5fyz2            10.077428      -1.045795
                                                         5.847736       1.382114
                                                         2.494033       0.147734
                                                         0.988355       0.587859
                                                         0.344978       0.010555
                                                         0.099466       0.017325
                          1       8    5fz3             10.077428      -0.467694
                                                         5.847736       0.618100
                                                         2.494033       0.066069
                                                         0.988355       0.262898
                                                         0.344978       0.004720
                                                         0.099466       0.007748

       Atomic covalent radius [Angstrom]:                                  1.150

       Atomic van der Waals radius [Angstrom]:                             1.630

     GTH Potential information for                                   GTH-PBE-q18

       Description:                       Goedecker-Teter-Hutter pseudopotential
                                           Goedecker et al., PRB 54, 1703 (1996)
                                          Hartwigsen et al., PRB 58, 3641 (1998)
                                                      Krack, TCA 114, 145 (2005)

       Gaussian exponent of the core charge distribution:               4.081633
       Electronic configuration (s p d ...):                           4   6   8

       Parameters of the local part of the GTH pseudopotential:

                          rloc        C1          C2          C3          C4
                        0.350000    2.102166    0.648484

       Parameters of the non-local part of the GTH pseudopotential:

                   l      r(l)      h(i,j,l)

                   0    0.261295    0.622658    9.970227
                                    9.970227  -12.871507
                   1    0.224253  -11.142708   12.429566
                                   12.429566  -14.706861
                   2    0.215348  -12.628146

  2. Atomic kind: Ni_b                                  Number of atoms:      16

     Orbital Basis Set                                        DZVP-MOLOPT-SR-GTH

       Number of orbital shell sets:                                           1
       Number of orbital shells:                                               8
       Number of primitive Cartesian functions:                                6
       Number of Cartesian basis functions:                                   31
       Number of spherical basis functions:                                   26
       Norm type:                                                              2

       Normalised Cartesian orbitals:

                        Set   Shell   Orbital            Exponent    Coefficient

                          1       1    2s               10.077428      -0.684558
                                                         5.847736      -0.844524
                                                         2.494033       1.088856
                                                         0.988355       0.395503
                                                         0.344978       0.010224
                                                         0.099466      -0.003250

                          1       2    3s               10.077428       0.096747
                                                         5.847736       0.162504
                                                         2.494033      -0.297192
                                                         0.988355      -0.319752
                                                         0.344978       0.088318
                                                         0.099466       0.118587

                          1       3    4s               10.077428       0.036437
                                                         5.847736      -0.381480
                                                         2.494033       0.003759
                                                         0.988355      -1.048256
                                                         0.344978       0.855825
                                                         0.099466      -0.176350

                          1       4    3px              10.077428      -3.133913
                                                         5.847736       3.027656
                                                         2.494033       2.353227
                                                         0.988355       0.554184
                                                         0.344978       0.019462
                                                         0.099466      -0.000291
                          1       4    3py              10.077428      -3.133913
                                                         5.847736       3.027656
                                                         2.494033       2.353227
                                                         0.988355       0.554184
                                                         0.344978       0.019462
                                                         0.099466      -0.000291
                          1       4    3pz              10.077428      -3.133913
                                                         5.847736       3.027656
                                                         2.494033       2.353227
                                                         0.988355       0.554184
                                                         0.344978       0.019462
                                                         0.099466      -0.000291

                          1       5    4px              10.077428      -0.112729
                                                         5.847736      -0.114008
                                                         2.494033      -0.347303
                                                         0.988355      -0.110323
                                                         0.344978       0.154096
                                                         0.099466       0.058386
                          1       5    4py              10.077428      -0.112729
                                                         5.847736      -0.114008
                                                         2.494033      -0.347303
                                                         0.988355      -0.110323
                                                         0.344978       0.154096
                                                         0.099466       0.058386
                          1       5    4pz              10.077428      -0.112729
                                                         5.847736      -0.114008
                                                         2.494033      -0.347303
                                                         0.988355      -0.110323
                                                         0.344978       0.154096
                                                         0.099466       0.058386

                          1       6    4dx2             10.077428       8.232726
                                                         5.847736       9.105758
                                                         2.494033       2.849835
                                                         0.988355       0.554319
                                                         0.344978       0.067245
                                                         0.099466       0.001940
                          1       6    4dxy             10.077428      14.259500
                                                         5.847736      15.771636
                                                         2.494033       4.936060
                                                         0.988355       0.960109
                                                         0.344978       0.116472
                                                         0.099466       0.003360
                          1       6    4dxz             10.077428      14.259500
                                                         5.847736      15.771636
                                                         2.494033       4.936060
                                                         0.988355       0.960109
                                                         0.344978       0.116472
                                                         0.099466       0.003360
                          1       6    4dy2             10.077428       8.232726
                                                         5.847736       9.105758
                                                         2.494033       2.849835
                                                         0.988355       0.554319
                                                         0.344978       0.067245
                                                         0.099466       0.001940
                          1       6    4dyz             10.077428      14.259500
                                                         5.847736      15.771636
                                                         2.494033       4.936060
                                                         0.988355       0.960109
                                                         0.344978       0.116472
                                                         0.099466       0.003360
                          1       6    4dz2             10.077428       8.232726
                                                         5.847736       9.105758
                                                         2.494033       2.849835
                                                         0.988355       0.554319
                                                         0.344978       0.067245
                                                         0.099466       0.001940

                          1       7    5dx2             10.077428      -2.715373
                                                         5.847736      -4.020640
                                                         2.494033      -1.397569
                                                         0.988355      -0.076143
                                                         0.344978       0.033435
                                                         0.099466       0.026032
                          1       7    5dxy             10.077428      -4.703164
                                                         5.847736      -6.963952
                                                         2.494033      -2.420661
                                                         0.988355      -0.131883
                                                         0.344978       0.057911
                                                         0.099466       0.045088
                          1       7    5dxz             10.077428      -4.703164
                                                         5.847736      -6.963952
                                                         2.494033      -2.420661
                                                         0.988355      -0.131883
                                                         0.344978       0.057911
                                                         0.099466       0.045088
                          1       7    5dy2             10.077428      -2.715373
                                                         5.847736      -4.020640
                                                         2.494033      -1.397569
                                                         0.988355      -0.076143
                                                         0.344978       0.033435
                                                         0.099466       0.026032
                          1       7    5dyz             10.077428      -4.703164
                                                         5.847736      -6.963952
                                                         2.494033      -2.420661
                                                         0.988355      -0.131883
                                                         0.344978       0.057911
                                                         0.099466       0.045088
                          1       7    5dz2             10.077428      -2.715373
                                                         5.847736      -4.020640
                                                         2.494033      -1.397569
                                                         0.988355      -0.076143
                                                         0.344978       0.033435
                                                         0.099466       0.026032

                          1       8    5fx3             10.077428      -0.467694
                                                         5.847736       0.618100
                                                         2.494033       0.066069
                                                         0.988355       0.262898
                                                         0.344978       0.004720
                                                         0.099466       0.007748
                          1       8    5fx2y            10.077428      -1.045795
                                                         5.847736       1.382114
                                                         2.494033       0.147734
                                                         0.988355       0.587859
                                                         0.344978       0.010555
                                                         0.099466       0.017325
                          1       8    5fx2z            10.077428      -1.045795
                                                         5.847736       1.382114
                                                         2.494033       0.147734
                                                         0.988355       0.587859
                                                         0.344978       0.010555
                                                         0.099466       0.017325
                          1       8    5fxy2            10.077428      -1.045795
                                                         5.847736       1.382114
                                                         2.494033       0.147734
                                                         0.988355       0.587859
                                                         0.344978       0.010555
                                                         0.099466       0.017325
                          1       8    5fxyz            10.077428      -1.811371
                                                         5.847736       2.393892
                                                         2.494033       0.255883
                                                         0.988355       1.018201
                                                         0.344978       0.018282
                                                         0.099466       0.030008
                          1       8    5fxz2            10.077428      -1.045795
                                                         5.847736       1.382114
                                                         2.494033       0.147734
                                                         0.988355       0.587859
                                                         0.344978       0.010555
                                                         0.099466       0.017325
                          1       8    5fy3             10.077428      -0.467694
                                                         5.847736       0.618100
                                                         2.494033       0.066069
                                                         0.988355       0.262898
                                                         0.344978       0.004720
                                                         0.099466       0.007748
                          1       8    5fy2z            10.077428      -1.045795
                                                         5.847736       1.382114
                                                         2.494033       0.147734
                                                         0.988355       0.587859
                                                         0.344978       0.010555
                                                         0.099466       0.017325
                          1       8    5fyz2            10.077428      -1.045795
                                                         5.847736       1.382114
                                                         2.494033       0.147734
                                                         0.988355       0.587859
                                                         0.344978       0.010555
                                                         0.099466       0.017325
                          1       8    5fz3             10.077428      -0.467694
                                                         5.847736       0.618100
                                                         2.494033       0.066069
                                                         0.988355       0.262898
                                                         0.344978       0.004720
                                                         0.099466       0.007748

       Atomic covalent radius [Angstrom]:                                  1.150

       Atomic van der Waals radius [Angstrom]:                             1.630

     GTH Potential information for                                   GTH-PBE-q18

       Description:                       Goedecker-Teter-Hutter pseudopotential
                                           Goedecker et al., PRB 54, 1703 (1996)
                                          Hartwigsen et al., PRB 58, 3641 (1998)
                                                      Krack, TCA 114, 145 (2005)

       Gaussian exponent of the core charge distribution:               4.081633
       Electronic configuration (s p d ...):                           4   6   8

       Parameters of the local part of the GTH pseudopotential:

                          rloc        C1          C2          C3          C4
                        0.350000    2.102166    0.648484

       Parameters of the non-local part of the GTH pseudopotential:

                   l      r(l)      h(i,j,l)

                   0    0.261295    0.622658    9.970227
                                    9.970227  -12.871507
                   1    0.224253  -11.142708   12.429566
                                   12.429566  -14.706861
                   2    0.215348  -12.628146


 MOLECULE KIND INFORMATION


 All atoms are their own molecule, skipping detailed information


 TOTAL NUMBERS AND MAXIMUM NUMBERS

  Total number of            - Atomic kinds:                                   2
                             - Atoms:                                         32
                             - Shell sets:                                    32
                             - Shells:                                       256
                             - Primitive Cartesian functions:                192
                             - Cartesian basis functions:                    992
                             - Spherical basis functions:                    832

  Maximum angular momentum of- Orbital basis functions:                        3
                             - Local part of the GTH pseudopotential:          2
                             - Non-local part of the GTH pseudopotential:      3


 MODULE QUICKSTEP: ATOMIC COORDINATES IN ANGSTROM

   Atom Kind Element         X             Y             Z       Z(eff)     Mass
      1    1 Ni   28      0.876298      0.876298      7.370500  18.0000  58.6934
      2    1 Ni   28      0.876298      4.382298      7.370500  18.0000  58.6934
      3    1 Ni   28      2.629298      2.629298      7.370500  18.0000  58.6934
      4    1 Ni   28      2.629298      6.135298      7.370500  18.0000  58.6934
      5    1 Ni   28      4.382298      0.876298      7.370500  18.0000  58.6934
      6    1 Ni   28      4.382298      4.382298      7.370500  18.0000  58.6934
      7    1 Ni   28      6.135298      2.629298      7.370500  18.0000  58.6934
      8    1 Ni   28      6.135298      6.135298      7.370500  18.0000  58.6934
      9    2 Ni   28      0.876298      2.629298      9.123500  18.0000  58.6934
     10    2 Ni   28      0.876298      6.135298      9.123500  18.0000  58.6934
     11    2 Ni   28      2.629298      0.876298      9.123500  18.0000  58.6934
     12    2 Ni   28      2.629298      4.382298      9.123500  18.0000  58.6934
     13    2 Ni   28      4.382298      2.629298      9.123500  18.0000  58.6934
     14    2 Ni   28      4.382298      6.135298      9.123500  18.0000  58.6934
     15    2 Ni   28      6.135298      0.876298      9.123500  18.0000  58.6934
     16    2 Ni   28      6.135298      4.382298      9.123500  18.0000  58.6934
     17    2 Ni   28      0.876298      0.876298     10.876500  18.0000  58.6934
     18    2 Ni   28      0.876298      4.382298     10.876500  18.0000  58.6934
     19    2 Ni   28      2.629298      2.629298     10.876500  18.0000  58.6934
     20    2 Ni   28      2.629298      6.135298     10.876500  18.0000  58.6934
     21    2 Ni   28      4.382298      0.876298     10.876500  18.0000  58.6934
     22    2 Ni   28      4.382298      4.382298     10.876500  18.0000  58.6934
     23    2 Ni   28      6.135298      2.629298     10.876500  18.0000  58.6934
     24    2 Ni   28      6.135298      6.135298     10.876500  18.0000  58.6934
     25    1 Ni   28      0.876298      2.629298     12.629500  18.0000  58.6934
     26    1 Ni   28      0.876298      6.135298     12.629500  18.0000  58.6934
     27    1 Ni   28      2.629298      0.876298     12.629500  18.0000  58.6934
     28    1 Ni   28      2.629298      4.382298     12.629500  18.0000  58.6934
     29    1 Ni   28      4.382298      2.629298     12.629500  18.0000  58.6934
     30    1 Ni   28      4.382298      6.135298     12.629500  18.0000  58.6934
     31    1 Ni   28      6.135298      0.876298     12.629500  18.0000  58.6934
     32    1 Ni   28      6.135298      4.382298     12.629500  18.0000  58.6934



 SCF PARAMETERS         Density guess:                                    ATOMIC
                        --------------------------------------------------------
                        max_scf:                                             500
                        max_scf_history:                                       0
                        max_diis:                                              4
                        --------------------------------------------------------
                        eps_scf:                                        5.00E-04
                        eps_scf_history:                                0.00E+00
                        eps_diis:                                       1.00E-01
                        eps_eigval:                                     1.00E-05
                        --------------------------------------------------------
                        level_shift [a.u.]:                             0.000000
                        added MOs                                       534  553
                        --------------------------------------------------------
                        Mixing method:                            BROYDEN_MIXING
                                                charge density mixing in g-space
                        --------------------------------------------------------
                        Smear method:                                FERMI_DIRAC
                        Electronic temperature [K]:                       2000.0
                        Electronic temperature [a.u.]:                  6.33E-03
                        Accuracy threshold:                             1.00E-10
                        --------------------------------------------------------
                        No outer SCF

 PW_GRID| Information for grid number                                          1
 PW_GRID| Grid distributed over                                   128 processors
 PW_GRID| Real space group dimensions                                     8   16
 PW_GRID| the grid is blocked:                                               YES
 PW_GRID| Cutoff [a.u.]                                                    300.0
 PW_GRID| spherical cutoff:                                                   NO
 PW_GRID|   Bounds   1            -54      53                Points:         108
 PW_GRID|   Bounds   2            -54      53                Points:         108
 PW_GRID|   Bounds   3           -150     149                Points:         300
 PW_GRID| Volume element (a.u.^3)  0.1896E-02     Volume (a.u.^3)      6635.2971
 PW_GRID| Grid span                                                    FULLSPACE
 PW_GRID|   Distribution                         Average         Max         Min
 PW_GRID|   G-Vectors                            27337.5       28728       25272
 PW_GRID|   G-Rays                                 253.1         266         234
 PW_GRID|   Real Space Points                    27337.5       28728       25272

 PW_GRID| Information for grid number                                          2
 PW_GRID| Number of the reference grid                                         1
 PW_GRID| Grid distributed over                                   128 processors
 PW_GRID| Real space group dimensions                                     8   16
 PW_GRID| the grid is blocked:                                                NO
 PW_GRID| Cutoff [a.u.]                                                    100.0
 PW_GRID| spherical cutoff:                                                   NO
 PW_GRID|   Bounds   1            -30      29                Points:          60
 PW_GRID|   Bounds   2            -30      29                Points:          60
 PW_GRID|   Bounds   3            -90      89                Points:         180
 PW_GRID| Volume element (a.u.^3)  0.1024E-01     Volume (a.u.^3)      6635.2971
 PW_GRID| Grid span                                                    FULLSPACE
 PW_GRID|   Distribution                         Average         Max         Min
 PW_GRID|   G-Vectors                             5062.5       15960           0
 PW_GRID|   G-Rays                                  84.4         266           0
 PW_GRID|   Real Space Points                     5062.5        5760        3780

 PW_GRID| Information for grid number                                          3
 PW_GRID| Number of the reference grid                                         1
 PW_GRID| Grid distributed over                                   128 processors
 PW_GRID| Real space group dimensions                                     8   16
 PW_GRID| the grid is blocked:                                                NO
 PW_GRID| Cutoff [a.u.]                                                     33.3
 PW_GRID| spherical cutoff:                                                   NO
 PW_GRID|   Bounds   1            -18      17                Points:          36
 PW_GRID|   Bounds   2            -18      17                Points:          36
 PW_GRID|   Bounds   3            -50      49                Points:         100
 PW_GRID| Volume element (a.u.^3)  0.5120E-01     Volume (a.u.^3)      6635.2971
 PW_GRID| Grid span                                                    FULLSPACE
 PW_GRID|   Distribution                         Average         Max         Min
 PW_GRID|   G-Vectors                             1012.5        9576           0
 PW_GRID|   G-Rays                                  28.1         266           0
 PW_GRID|   Real Space Points                     1012.5        1500         800

 PW_GRID| Information for grid number                                          4
 PW_GRID| Number of the reference grid                                         1
 PW_GRID| Grid distributed over                                   128 processors
 PW_GRID| Real space group dimensions                                     8   16
 PW_GRID| the grid is blocked:                                                NO
 PW_GRID| Cutoff [a.u.]                                                     11.1
 PW_GRID| spherical cutoff:                                                   NO
 PW_GRID|   Bounds   1            -10       9                Points:          20
 PW_GRID|   Bounds   2            -10       9                Points:          20
 PW_GRID|   Bounds   3            -30      29                Points:          60
 PW_GRID| Volume element (a.u.^3)  0.2765         Volume (a.u.^3)      6635.2971
 PW_GRID| Grid span                                                    FULLSPACE
 PW_GRID|   Distribution                         Average         Max         Min
 PW_GRID|   G-Vectors                              187.5        3800           0
 PW_GRID|   G-Rays                                   9.4         190           0
 PW_GRID|   Real Space Points                      187.5         360         120

 PW_GRID| Information for grid number                                          5
 PW_GRID| Number of the reference grid                                         1
 PW_GRID| Grid distributed over                                   128 processors
 PW_GRID| Real space group dimensions                                     8   16
 PW_GRID| the grid is blocked:                                                NO
 PW_GRID| Cutoff [a.u.]                                                      3.7
 PW_GRID| spherical cutoff:                                                   NO
 PW_GRID|   Bounds   1             -6       5                Points:          12
 PW_GRID|   Bounds   2             -6       5                Points:          12
 PW_GRID|   Bounds   3            -18      17                Points:          36
 PW_GRID| Volume element (a.u.^3)   1.280         Volume (a.u.^3)      6635.2971
 PW_GRID| Grid span                                                    FULLSPACE
 PW_GRID|   Distribution                         Average         Max         Min
 PW_GRID|   G-Vectors                               40.5        1296           0
 PW_GRID|   G-Rays                                   3.4         108           0
 PW_GRID|   Real Space Points                       40.5          72           0

 POISSON| Solver                                                        PERIODIC
 POISSON| Periodicity                                                        XYZ

 RS_GRID| Information for grid number                                          1
 RS_GRID|   Bounds   1            -54      53                Points:         108
 RS_GRID|   Bounds   2            -54      53                Points:         108
 RS_GRID|   Bounds   3           -150     149                Points:         300
 RS_GRID| Real space distribution over                                  8 groups
 RS_GRID| Real space distribution along direction                              2
 RS_GRID| Border size                                                         28
 RS_GRID| Real space distribution over                                 16 groups
 RS_GRID| Real space distribution along direction                              3
 RS_GRID| Border size                                                         28
 RS_GRID|   Distribution                         Average         Max         Min
 RS_GRID|   Planes                                  69.5          70          69
 RS_GRID|   Distribution                         Average         Max         Min
 RS_GRID|   Planes                                  74.8          75          74

 RS_GRID| Information for grid number                                          2
 RS_GRID|   Bounds   1            -30      29                Points:          60
 RS_GRID|   Bounds   2            -30      29                Points:          60
 RS_GRID|   Bounds   3            -90      89                Points:         180
 RS_GRID| Real space fully replicated
 RS_GRID| Group size                                                           1

 RS_GRID| Information for grid number                                          3
 RS_GRID|   Bounds   1            -18      17                Points:          36
 RS_GRID|   Bounds   2            -18      17                Points:          36
 RS_GRID|   Bounds   3            -50      49                Points:         100
 RS_GRID| Real space fully replicated
 RS_GRID| Group size                                                           1

 RS_GRID| Information for grid number                                          4
 RS_GRID|   Bounds   1            -10       9                Points:          20
 RS_GRID|   Bounds   2            -10       9                Points:          20
 RS_GRID|   Bounds   3            -30      29                Points:          60
 RS_GRID| Real space fully replicated
 RS_GRID| Group size                                                           1

 RS_GRID| Information for grid number                                          5
 RS_GRID|   Bounds   1             -6       5                Points:          12
 RS_GRID|   Bounds   2             -6       5                Points:          12
 RS_GRID|   Bounds   3            -18      17                Points:          36
 RS_GRID| Real space fully replicated
 RS_GRID| Group size                                                           1

 Spin 1

 Number of electrons:                                                        297.600
 Number of occupied orbitals:                                                298
 Number of molecular orbitals:                                               832

 Spin 2

 Number of electrons:                                                        278.400
 Number of occupied orbitals:                                                279
 Number of molecular orbitals:                                               832

 Number of orbital functions:                                                832
 Number of independent orbital functions:                                    832

 Extrapolation method: initial_guess

 Atomic guess: The first density matrix is obtained in terms of atomic orbitals
               and electronic configurations assigned to each atomic kind

 Guess for atomic kind: Ni_i

 Electronic structure
    Total number of core electrons                                         10.00
    Total number of valence electrons                                      18.00
    Total number of electrons                                              28.00
    Multiplicity                                                         doublet
    Alpha Electrons
    S   [  1.00  1.00] 1.00  1.00
    P   [  3.00] 3.00
    D      4.35
    Beta Electrons
    S   [  1.00  1.00] 1.00  1.00
    P   [  3.00] 3.00
    D      3.65


 *******************************************************************************
                  Iteration          Convergence                     Energy [au]
 *******************************************************************************
                          1         1.51729                    -167.067424631347
                          2         15.3902                    -156.642654318634
                          3         2.33433                    -168.319355313541
                          4        0.206730                    -168.609905008081
                          5        0.814175E-01                -168.612873080494
                          6        0.173318E-01                -168.613470181066
                          7        0.290432E-02                -168.613543571401
                          8        0.311825E-02                -168.613543401474
                          9        0.179670E-03                -168.613544404477
                         10        0.169386E-02                -168.613544207811
                         11        0.473341E-03                -168.613544360253
                         12        0.165417E-03                -168.613544400419
                         13        0.162622E-03                -168.613544401489
                         14        0.158325E-03                -168.613544403900
                         15        0.177007E-03                -168.613544402509
                         16        0.138916E-03                -168.613544404900
                         17        0.934549E-04                -168.613544406149
                         18        0.119916E-03                -168.613544405789
                         19        0.131607E-03                -168.613544405591
                         20        0.169309E-03                -168.613544404773
                         21        0.551337E-04                -168.613544406656
                         22        0.382664E-04                -168.613544406759
                         23        0.378942E-04                -168.613544406765
                         24        0.381089E-04                -168.613544406765
                         25        0.390835E-04                -168.613544406759
                         26        0.308614E-04                -168.613544406841
                         27        0.205044E-04                -168.613544406892
                         28        0.200942E-04                -168.613544406893
                         29        0.199375E-04                -168.613544406893
                         30        0.200198E-04                -168.613544406894
                         31        0.161325E-04                -168.613544406903
                         32        0.330614E-05                -168.613544406925
                         33        0.238713E-05                -168.613544406926
                         34        0.265439E-05                -168.613544406926
                         35        0.277073E-05                -168.613544406926
                         36        0.335175E-05                -168.613544406926
                         37        0.148809E-05                -168.613544406927
                         38        0.133447E-05                -168.613544406927
                         39        0.918735E-06                -168.613544406927

 Energy components [Hartree]           Total Energy ::         -168.613544406927
                                        Band Energy ::          -26.569761966525
                                     Kinetic Energy ::           97.306723392622
                                   Potential Energy ::         -265.920267799548
                                      Virial (-V/T) ::            2.732804666812
                                        Core Energy ::         -299.567979157577
                                          XC Energy ::          -16.227189041387
                                     Coulomb Energy ::          147.181623792037
                       Total Pseudopotential Energy ::         -396.961043505191
                       Local Pseudopotential Energy ::         -362.648291121960
                    Nonlocal Pseudopotential Energy ::          -34.312752383230
                                        Confinement ::            0.863409549921

 Orbital energies  State     Spin  L     Occupation   Energy[a.u.]    Energy[eV]

                       1    alpha  0          1.000      -4.172666   -113.544030
                       2    alpha  0          1.000      -0.181431     -4.936983
                       1     beta  0          1.000      -4.140640   -112.672541
                       2     beta  0          1.000      -0.176372     -4.799339

                       1    alpha  1          3.000      -2.578739    -70.171064
                       1     beta  1          3.000      -2.547579    -69.323162

                       1    alpha  2          4.350      -0.327039     -8.899191
                       1     beta  2          3.650      -0.300569     -8.178887


 Total Electron Density at R=0:                                         0.030422

 Guess for atomic kind: Ni_b

 Electronic structure
    Total number of core electrons                                         10.00
    Total number of valence electrons                                      18.00
    Total number of electrons                                              28.00
    Multiplicity                                                         doublet
    Alpha Electrons
    S   [  1.00  1.00] 1.00  1.00
    P   [  3.00] 3.00
    D      4.25
    Beta Electrons
    S   [  1.00  1.00] 1.00  1.00
    P   [  3.00] 3.00
    D      3.75


 *******************************************************************************
                  Iteration          Convergence                     Energy [au]
 *******************************************************************************
                          1         1.51687                    -167.065012761055
                          2         14.9817                    -156.620431300845
                          3         2.25575                    -168.317311438693
                          4        0.189210                    -168.607926092750
                          5        0.708658E-01                -168.610773319290
                          6        0.122256E-01                -168.611238205502
                          7        0.598421E-02                -168.611272268995
                          8        0.528277E-02                -168.611272438110
                          9        0.104644E-02                -168.611275321653
                         10        0.260234E-02                -168.611274926630
                         11        0.975322E-03                -168.611275328217
                         12        0.161067E-03                -168.611275447773
                         13        0.147413E-03                -168.611275446839
                         14        0.115114E-03                -168.611275449434
                         15        0.167217E-03                -168.611275445436
                         16        0.255374E-04                -168.611275450531
                         17        0.418369E-04                -168.611275450414
                         18        0.393709E-04                -168.611275450477
                         19        0.239931E-04                -168.611275450542
                         20        0.173885E-04                -168.611275450557
                         21        0.851368E-05                -168.611275450578
                         22        0.849928E-05                -168.611275450580
                         23        0.544937E-05                -168.611275450584
                         24        0.540003E-05                -168.611275450586
                         25        0.613371E-05                -168.611275450584
                         26        0.311593E-06                -168.611275450588

 Energy components [Hartree]           Total Energy ::         -168.611275450588
                                        Band Energy ::          -26.568680144499
                                     Kinetic Energy ::           97.303659243130
                                   Potential Energy ::         -265.914934693718
                                      Virial (-V/T) ::            2.732835915546
                                        Core Energy ::         -299.566189183323
                                          XC Energy ::          -16.224592878785
                                     Coulomb Energy ::          147.179506611520
                       Total Pseudopotential Energy ::         -396.956189041778
                       Local Pseudopotential Energy ::         -362.645043136649
                    Nonlocal Pseudopotential Energy ::          -34.311145905129
                                        Confinement ::            0.863406153250

 Orbital energies  State     Spin  L     Occupation   Energy[a.u.]    Energy[eV]

                       1    alpha  0          1.000      -4.168335   -113.426177
                       2    alpha  0          1.000      -0.180730     -4.917906
                       1     beta  0          1.000      -4.145459   -112.803683
                       2     beta  0          1.000      -0.177117     -4.819606

                       1    alpha  1          3.000      -2.574525    -70.056390
                       1     beta  1          3.000      -2.552268    -69.450746

                       1    alpha  2          4.250      -0.323446     -8.801405
                       1     beta  2          3.750      -0.304537     -8.286881


 Total Electron Density at R=0:                                         0.030429

 Spin 1
 Re-scaling the density matrix to get the right number of electrons for spin 1
                  # Electrons              Trace(P)               Scaling factor
                        297.600             297.600                        1.000

 Spin 2
 Re-scaling the density matrix to get the right number of electrons for spin 2
                  # Electrons              Trace(P)               Scaling factor
                        278.400             278.400                        1.000


 SCF WAVEFUNCTION OPTIMIZATION

  Step     Update method      Time    Convergence         Total energy    Change
  ------------------------------------------------------------------------------
     1 NoMix/Diag. 0.10E-01    2.1     0.87318318     -5426.4441344177 -5.43E+03
     2 Broy./Diag. 0.10E-01    1.5     0.00445229     -5311.8633398873  1.15E+02
[...]
   121 Broy./Diag. 0.10E-01    1.5     0.00235115     -5417.9162272058 -9.63E-02
   122 Broy./Diag. 0.10E-01    1.5     0.01576705     -5418.4542600145 -5.38E-01
   123 Broy./Diag. 0.10E-01    1.5     0.00436519     -5418.2218706760  2.32E-01
   124 Broy./Diag. 0.10E-01    1.5     0.00768266     -5418.3121598664 -9.03E-02
   125 Broy./Diag. 0.10E-01    1.5     0.00122416     -5418.2999788007  1.22E-02
   126 Broy./Diag. 0.10E-01    1.5     0.00176215     -5418.3225125451 -2.25E-02
   127 Broy./Diag. 0.10E-01    1.5     0.00504045     -5418.2228323236  9.97E-02
   128 Broy./Diag. 0.10E-01    1.5     0.00323217     -5418.2159468062  6.89E-03
   129 Broy./Diag. 0.10E-01    1.5     0.01396936     -5418.1420672917  7.39E-02
   130 Broy./Diag. 0.10E-01    1.5     0.01181721     -5418.1779026024 -3.58E-02
   131 Broy./Diag. 0.10E-01    1.5     0.00704698     -5418.2543076524 -7.64E-02
   132 Broy./Diag. 0.10E-01    1.5     0.00922441     -5418.3029420874 -4.86E-02
   133 Broy./Diag. 0.10E-01    1.5     0.00581772     -5418.2871808426  1.58E-02
   134 Broy./Diag. 0.10E-01    1.5     0.00570857     -5418.5260796521 -2.39E-01
   135 Broy./Diag. 0.10E-01    1.5     0.00570614     -5418.4211497226  1.05E-01
   136 Broy./Diag. 0.10E-01    1.5     0.00338336     -5418.3940031580  2.71E-02
   137 Broy./Diag. 0.10E-01    1.5     0.00457247     -5418.5589704251 -1.65E-01
   138 Broy./Diag. 0.10E-01    1.5     0.00874041     -5418.5410343375  1.79E-02
   139 Broy./Diag. 0.10E-01    1.5     0.00525252     -5418.5342795221  6.75E-03
   140 Broy./Diag. 0.10E-01    1.5     0.00307511     -5418.5137951656  2.05E-02
   141 Broy./Diag. 0.10E-01    1.5     0.00239582     -5418.5351312644 -2.13E-02
   142 Broy./Diag. 0.10E-01    1.5     0.00422390     -5418.5013686088  3.38E-02
   143 Broy./Diag. 0.10E-01    1.5     0.00687706     -5418.7515691701 -2.50E-01
   144 Broy./Diag. 0.10E-01    1.5     0.00482199     -5418.6676277216  8.39E-02
   145 Broy./Diag. 0.10E-01    1.5     0.00323143     -5418.6503885601  1.72E-02
   146 Broy./Diag. 0.10E-01    1.5     0.00465252     -5418.8101721196 -1.60E-01
   147 Broy./Diag. 0.10E-01    1.5     0.00494492     -5418.7448303683  6.53E-02
   148 Broy./Diag. 0.10E-01    1.5     0.02853560     -5418.6236003458  1.21E-01
   149 Broy./Diag. 0.10E-01    1.5     0.00557345     -5418.5935286346  3.01E-02
   150 Broy./Diag. 0.10E-01    1.5     0.00124841     -5418.5050593975  8.85E-02
   151 Broy./Diag. 0.10E-01    1.5     0.00217802     -5418.4146751223  9.04E-02
   152 Broy./Diag. 0.10E-01    1.5     0.02315727     -5418.4040357367  1.06E-02
   153 Broy./Diag. 0.10E-01    1.5     0.00260292     -5418.2828725430  1.21E-01
   154 Broy./Diag. 0.10E-01    1.5     0.00475493     -5418.2595597499  2.33E-02
   155 Broy./Diag. 0.10E-01    1.5     0.00322683     -5418.2701485087 -1.06E-02
   156 Broy./Diag. 0.10E-01    1.5     0.00233263     -5418.4007002212 -1.31E-01
   157 Broy./Diag. 0.10E-01    1.5     0.00854575     -5418.4471979267 -4.65E-02
   158 Broy./Diag. 0.10E-01    1.5     0.00278676     -5418.7314933834 -2.84E-01
   159 Broy./Diag. 0.10E-01    1.5     0.00140268     -5418.8041687227 -7.27E-02
   160 Broy./Diag. 0.10E-01    1.5     0.00529331     -5418.7318776889  7.23E-02
   161 Broy./Diag. 0.10E-01    1.5     0.00374187     -5418.7657929284 -3.39E-02
   162 Broy./Diag. 0.10E-01    1.5     0.00626027     -5418.8313954953 -6.56E-02
   163 Broy./Diag. 0.10E-01    1.5     0.00408487     -5418.8058800348  2.55E-02
   164 Broy./Diag. 0.10E-01    1.5     0.00207055     -5418.7521327122  5.37E-02
   165 Broy./Diag. 0.10E-01    1.5     0.00358365     -5418.8396559793 -8.75E-02
   166 Broy./Diag. 0.10E-01    1.5     0.01185659     -5418.8936550725 -5.40E-02
   167 Broy./Diag. 0.10E-01    1.5     0.00470360     -5418.5705126395  3.23E-01
   168 Broy./Diag. 0.10E-01    1.5     0.00640212     -5418.3227594138  2.48E-01
   169 Broy./Diag. 0.10E-01    1.5     0.00123598     -5418.1791008324  1.44E-01
   170 Broy./Diag. 0.10E-01    1.5     0.01265387     -5418.2024844848 -2.34E-02
   171 Broy./Diag. 0.10E-01    1.5     0.00198153     -5418.0540881755  1.48E-01
   172 Broy./Diag. 0.10E-01    1.5     0.00056222     -5418.0160863805  3.80E-02
   173 Broy./Diag. 0.10E-01    1.5     0.00901216     -5417.9767182227  3.94E-02
   174 Broy./Diag. 0.10E-01    1.5     0.00436775     -5418.0044932211 -2.78E-02
   175 Broy./Diag. 0.10E-01    1.5     0.00528763     -5418.0122695006 -7.78E-03
   176 Broy./Diag. 0.10E-01    1.5     0.00722140     -5418.0652869491 -5.30E-02
   177 Broy./Diag. 0.10E-01    1.5     0.00653534     -5418.1453592490 -8.01E-02
   178 Broy./Diag. 0.10E-01    1.5     0.00650713     -5418.1862928919 -4.09E-02
   179 Broy./Diag. 0.10E-01    1.5     0.00655008     -5418.1470013463  3.93E-02
   180 Broy./Diag. 0.10E-01    1.5     0.00228009     -5418.1434091553  3.59E-03
   181 Broy./Diag. 0.10E-01    1.5     0.00238684     -5418.1360251609  7.38E-03
   182 Broy./Diag. 0.10E-01    1.5     0.00261821     -5418.1366900639 -6.65E-04
   183 Broy./Diag. 0.10E-01    1.5     0.00589533     -5418.0305863891  1.06E-01
   184 Broy./Diag. 0.10E-01    1.5     0.01042085     -5418.0059103064  2.47E-02
   185 Broy./Diag. 0.10E-01    1.5     0.00649192     -5418.1296525522 -1.24E-01
   186 Broy./Diag. 0.10E-01    1.5     0.00148882     -5418.2578902537 -1.28E-01
   187 Broy./Diag. 0.10E-01    1.5     0.00578477     -5418.2391768576  1.87E-02
   188 Broy./Diag. 0.10E-01    1.5     0.00944221     -5418.2015675099  3.76E-02
   189 Broy./Diag. 0.10E-01    1.5     0.00896035     -5418.2533492424 -5.18E-02
   190 Broy./Diag. 0.10E-01    1.5     0.00394136     -5418.1287217121  1.25E-01
   191 Broy./Diag. 0.10E-01    1.5     0.00700542     -5417.9688532752  1.60E-01
   192 Broy./Diag. 0.10E-01    1.5     0.01504850     -5417.9006655893  6.82E-02
   193 Broy./Diag. 0.10E-01    1.5     0.00117626     -5417.7859236394  1.15E-01
   194 Broy./Diag. 0.10E-01    1.5     0.00712223     -5417.8749630378 -8.90E-02
   195 Broy./Diag. 0.10E-01    1.5     0.00494593     -5417.9942983246 -1.19E-01
   196 Broy./Diag. 0.10E-01    1.5     0.00523344     -5418.0419349609 -4.76E-02
   197 Broy./Diag. 0.10E-01    1.5     0.00705896     -5417.9944755157  4.75E-02
   198 Broy./Diag. 0.10E-01    1.5     0.02375292     -5417.9422275730  5.22E-02
   199 Broy./Diag. 0.10E-01    1.5     0.00894828     -5418.1021007761 -1.60E-01
   200 Broy./Diag. 0.10E-01    1.5     0.00517151     -5418.1654447312 -6.33E-02
   201 Broy./Diag. 0.10E-01    1.5     0.02431158     -5418.1043790853  6.11E-02
   202 Broy./Diag. 0.10E-01    1.5     0.01264529     -5418.1101701845 -5.79E-03
   203 Broy./Diag. 0.10E-01    1.5     0.01381016     -5418.1961437321 -8.60E-02
   204 Broy./Diag. 0.10E-01    1.5     0.03366757     -5417.9738311436  2.22E-01
   205 Broy./Diag. 0.10E-01    1.5     0.05123947     -5417.8471868463  1.27E-01
   206 Broy./Diag. 0.10E-01    1.5     0.03288733     -5418.2115716037 -3.64E-01
   207 Broy./Diag. 0.10E-01    1.5     0.00641075     -5418.2283276543 -1.68E-02
   208 Broy./Diag. 0.10E-01    1.5     0.01089976     -5418.3258282817 -9.75E-02
   209 Broy./Diag. 0.10E-01    1.5     0.00471399     -5418.3186452898  7.18E-03
   210 Broy./Diag. 0.10E-01    1.5     0.01497731     -5418.4575054853 -1.39E-01
   211 Broy./Diag. 0.10E-01    1.5     0.03939500     -5418.5027916387 -4.53E-02
   212 Broy./Diag. 0.10E-01    1.5     0.02230255     -5418.3407588839  1.62E-01
   213 Broy./Diag. 0.10E-01    1.5     0.02289811     -5418.2418509488  9.89E-02
   214 Broy./Diag. 0.10E-01    1.5     0.01620910     -5418.1880275561  5.38E-02
   215 Broy./Diag. 0.10E-01    1.5     0.00838597     -5418.1246914683  6.33E-02
   216 Broy./Diag. 0.10E-01    1.5     0.01566806     -5418.0074666339  1.17E-01
   217 Broy./Diag. 0.10E-01    1.5     0.01807091     -5417.9919588697  1.55E-02
   218 Broy./Diag. 0.10E-01    1.5     0.06406664     -5417.9721513153  1.98E-02
   219 Broy./Diag. 0.10E-01    1.5     0.03128246     -5418.5631801015 -5.91E-01
   220 Broy./Diag. 0.10E-01    1.5     0.01286488     -5418.1302686537  4.33E-01
   221 Broy./Diag. 0.10E-01    1.5     0.01153664     -5418.0963698569  3.39E-02
   222 Broy./Diag. 0.10E-01    1.5     0.06064769     -5418.1357978347 -3.94E-02
   223 Broy./Diag. 0.10E-01    1.5     0.07336532     -5418.5128177158 -3.77E-01
   224 Broy./Diag. 0.10E-01    1.5     0.01315421     -5418.1636657323  3.49E-01
   225 Broy./Diag. 0.10E-01    1.5     0.00936061     -5418.1332286572  3.04E-02
   226 Broy./Diag. 0.10E-01    1.5     0.04874124     -5418.1397704634 -6.54E-03
   227 Broy./Diag. 0.10E-01    1.5     0.02218263     -5418.2673876983 -1.28E-01
   228 Broy./Diag. 0.10E-01    1.5     0.00785784     -5418.3246023048 -5.72E-02
   229 Broy./Diag. 0.10E-01    1.5     0.01648834     -5418.3103011298  1.43E-02
   230 Broy./Diag. 0.10E-01    1.5     0.00965435     -5418.2354813266  7.48E-02
   231 Broy./Diag. 0.10E-01    1.5     0.00375248     -5418.1396058976  9.59E-02
   232 Broy./Diag. 0.10E-01    1.5     0.01819387     -5418.0668605850  7.27E-02
   233 Broy./Diag. 0.10E-01    1.5     0.03768858     -5417.9802632155  8.66E-02
   234 Broy./Diag. 0.10E-01    1.5     0.01586729     -5417.7769994256  2.03E-01
   235 Broy./Diag. 0.10E-01    1.5     0.00899327     -5417.8157709812 -3.88E-02
   236 Broy./Diag. 0.10E-01    1.5     0.00528611     -5417.8366467486 -2.09E-02
   237 Broy./Diag. 0.10E-01    1.5     0.00501332     -5417.8570333652 -2.04E-02
   238 Broy./Diag. 0.10E-01    1.5     0.04180238     -5417.8315641622  2.55E-02
   239 Broy./Diag. 0.10E-01    1.5     0.00472449     -5417.6679482372  1.64E-01
   240 Broy./Diag. 0.10E-01    1.5     0.00160122     -5417.6930899943 -2.51E-02
   241 Broy./Diag. 0.10E-01    1.5     0.00506316     -5417.6646778019  2.84E-02
   242 Broy./Diag. 0.10E-01    1.5     0.00632832     -5417.6415036015  2.32E-02
   243 Broy./Diag. 0.10E-01    1.5     0.01253351     -5417.6743038465 -3.28E-02
   244 Broy./Diag. 0.10E-01    1.5     0.01103248     -5417.8120608001 -1.38E-01
   245 Broy./Diag. 0.10E-01    1.5     0.01352094     -5417.7201143819  9.19E-02
   246 Broy./Diag. 0.10E-01    1.5     0.00623309     -5417.6870419376  3.31E-02
   247 Broy./Diag. 0.10E-01    1.5     0.00603890     -5417.8825830881 -1.96E-01
   248 Broy./Diag. 0.10E-01    1.5     0.02988983     -5417.7713980475  1.11E-01
   249 Broy./Diag. 0.10E-01    1.5     0.02755183     -5417.4049149528  3.66E-01
   250 Broy./Diag. 0.10E-01    1.5     0.02054225     -5417.6615379895 -2.57E-01
   251 Broy./Diag. 0.10E-01    1.5     0.00989229     -5417.6918447916 -3.03E-02
   252 Broy./Diag. 0.10E-01    1.5     0.01510693     -5417.5272242922  1.65E-01
   253 Broy./Diag. 0.10E-01    1.5     0.00391883     -5417.4662575874  6.10E-02
   254 Broy./Diag. 0.10E-01    1.5     0.00926986     -5417.4899348863 -2.37E-02
   255 Broy./Diag. 0.10E-01    1.5     0.01147703     -5417.7317391358 -2.42E-01
   256 Broy./Diag. 0.10E-01    1.5     0.00713151     -5417.9754422849 -2.44E-01
   257 Broy./Diag. 0.10E-01    1.5     0.01657234     -5417.9669975999  8.44E-03
   258 Broy./Diag. 0.10E-01    1.5     0.02131230     -5418.0975888355 -1.31E-01
   259 Broy./Diag. 0.10E-01    1.5     0.06513408     -5418.0160405285  8.15E-02
   260 Broy./Diag. 0.10E-01    1.5     0.01215607     -5418.3110163733 -2.95E-01
   261 Broy./Diag. 0.10E-01    1.5     0.02756540     -5418.1455167363  1.65E-01
   262 Broy./Diag. 0.10E-01    1.5     0.00693742     -5418.4218177544 -2.76E-01
   263 Broy./Diag. 0.10E-01    1.5     0.01909336     -5418.4594548624 -3.76E-02
   264 Broy./Diag. 0.10E-01    1.5     0.04347435     -5418.6981475831 -2.39E-01
   265 Broy./Diag. 0.10E-01    1.5     0.01649144     -5419.0988061952 -4.01E-01
   266 Broy./Diag. 0.10E-01    1.5     0.01936119     -5418.8512943689  2.48E-01
   267 Broy./Diag. 0.10E-01    1.5     0.02269550     -5418.6060698496  2.45E-01
   268 Broy./Diag. 0.10E-01    1.5     0.00144668     -5418.2516749876  3.54E-01
   269 Broy./Diag. 0.10E-01    1.5     0.03869195     -5418.2024779627  4.92E-02
   270 Broy./Diag. 0.10E-01    1.5     0.00974457     -5418.3266044433 -1.24E-01
   271 Broy./Diag. 0.10E-01    1.5     0.01422806     -5418.0102442016  3.16E-01
   272 Broy./Diag. 0.10E-01    1.5     0.00177180     -5417.8249363051  1.85E-01
   273 Broy./Diag. 0.10E-01    1.5     0.02764419     -5417.7261153214  9.88E-02
   274 Broy./Diag. 0.10E-01    1.5     0.00517297     -5417.9531346526 -2.27E-01
   275 Broy./Diag. 0.10E-01    1.5     0.01687426     -5418.0005975621 -4.75E-02
   276 Broy./Diag. 0.10E-01    1.5     0.02025235     -5418.2444397969 -2.44E-01
   277 Broy./Diag. 0.10E-01    1.5     0.02417348     -5418.4878577194 -2.43E-01
   278 Broy./Diag. 0.10E-01    1.5     0.03408613     -5418.5165137021 -2.87E-02
   279 Broy./Diag. 0.10E-01    1.5     0.04012556     -5418.3242932525  1.92E-01
   280 Broy./Diag. 0.10E-01    1.5     0.03140029     -5418.2438931909  8.04E-02
   281 Broy./Diag. 0.10E-01    1.5     0.00362786     -5418.2992083009 -5.53E-02
   282 Broy./Diag. 0.10E-01    1.5     0.02795651     -5418.3766572835 -7.74E-02
   283 Broy./Diag. 0.10E-01    1.5     0.00860336     -5418.2041320685  1.73E-01
   284 Broy./Diag. 0.10E-01    1.5     0.02661740     -5418.1960911858  8.04E-03
   285 Broy./Diag. 0.10E-01    1.5     0.00821507     -5418.1352616581  6.08E-02
   286 Broy./Diag. 0.10E-01    1.5     0.01033541     -5418.1806787958 -4.54E-02
   287 Broy./Diag. 0.10E-01    1.5     0.01887865     -5418.2556554189 -7.50E-02
   288 Broy./Diag. 0.10E-01    1.5     0.00538473     -5418.1733475925  8.23E-02
   289 Broy./Diag. 0.10E-01    1.5     0.00184111     -5418.2020695255 -2.87E-02
   290 Broy./Diag. 0.10E-01    1.5     0.00653273     -5418.0547599835  1.47E-01
   291 Broy./Diag. 0.10E-01    1.5     0.01143378     -5417.9307937575  1.24E-01
   292 Broy./Diag. 0.10E-01    1.5     0.00826785     -5418.0638537704 -1.33E-01
   293 Broy./Diag. 0.10E-01    1.5     0.00134820     -5418.0569480116  6.91E-03
   294 Broy./Diag. 0.10E-01    1.5     0.00636352     -5418.0411202267  1.58E-02
   295 Broy./Diag. 0.10E-01    1.5     0.02085515     -5417.9494688399  9.17E-02
   296 Broy./Diag. 0.10E-01    1.5     0.00613694     -5417.9374485485  1.20E-02
   297 Broy./Diag. 0.10E-01    1.5     0.00267211     -5417.9488531286 -1.14E-02
   298 Broy./Diag. 0.10E-01    1.5     0.01779934     -5418.1886902067 -2.40E-01
   299 Broy./Diag. 0.10E-01    1.5     0.00352841     -5418.5678993287 -3.79E-01
   300 Broy./Diag. 0.10E-01    1.5     0.00248331     -5418.2396045582  3.28E-01
   301 Broy./Diag. 0.10E-01    1.5     0.00507534     -5418.3169316463 -7.73E-02
   302 Broy./Diag. 0.10E-01    1.5     0.01222996     -5418.4143189344 -9.74E-02
   303 Broy./Diag. 0.10E-01    1.5     0.00816125     -5418.3719492672  4.24E-02
   304 Broy./Diag. 0.10E-01    1.5     0.02325442     -5418.0296895620  3.42E-01
   305 Broy./Diag. 0.10E-01    1.5     0.02155774     -5418.0635567188 -3.39E-02
   306 Broy./Diag. 0.10E-01    1.5     0.04740044     -5417.9684241874  9.51E-02
   307 Broy./Diag. 0.10E-01    1.5     0.01596948     -5417.9241055574  4.43E-02
   308 Broy./Diag. 0.10E-01    1.5     0.00785235     -5417.8415845184  8.25E-02
   309 Broy./Diag. 0.10E-01    1.5     0.02848318     -5417.9420645076 -1.00E-01
   310 Broy./Diag. 0.10E-01    1.5     0.00681521     -5418.0980833988 -1.56E-01
   311 Broy./Diag. 0.10E-01    1.5     0.01760429     -5417.9748682566  1.23E-01
   312 Broy./Diag. 0.10E-01    1.5     0.00862919     -5417.9380853500  3.68E-02
   313 Broy./Diag. 0.10E-01    1.5     0.00131968     -5417.9918414719 -5.38E-02
   314 Broy./Diag. 0.10E-01    1.5     0.01013235     -5418.0379612085 -4.61E-02
   315 Broy./Diag. 0.10E-01    1.5     0.02224400     -5417.9906926815  4.73E-02
   316 Broy./Diag. 0.10E-01    1.5     0.02179098     -5417.8362118743  1.54E-01
   317 Broy./Diag. 0.10E-01    1.5     0.01008283     -5417.6224278392  2.14E-01
   318 Broy./Diag. 0.10E-01    1.5     0.02898963     -5417.6003148254  2.21E-02
   319 Broy./Diag. 0.10E-01    1.5     0.00784266     -5417.2500022706  3.50E-01
   320 Broy./Diag. 0.10E-01    1.5     0.00584459     -5417.2723487242 -2.23E-02
   321 Broy./Diag. 0.10E-01    1.5     0.00756586     -5417.1267848372  1.46E-01
   322 Broy./Diag. 0.10E-01    1.5     0.04744212     -5417.0020790551  1.25E-01
   323 Broy./Diag. 0.10E-01    1.5     0.02767219     -5417.3187893845 -3.17E-01
   324 Broy./Diag. 0.10E-01    1.5     0.03957104     -5417.2485066398  7.03E-02
   325 Broy./Diag. 0.10E-01    1.5     0.01431761     -5417.6796970707 -4.31E-01
   326 Broy./Diag. 0.10E-01    1.5     0.01111945     -5417.8915773581 -2.12E-01
   327 Broy./Diag. 0.10E-01    1.5     0.00404954     -5417.8921604089 -5.83E-04
   328 Broy./Diag. 0.10E-01    1.5     0.00681656     -5417.8764982441  1.57E-02
   329 Broy./Diag. 0.10E-01    1.5     0.00306553     -5417.9156519603 -3.92E-02
   330 Broy./Diag. 0.10E-01    1.5     0.02464323     -5417.8494697407  6.62E-02
   331 Broy./Diag. 0.10E-01    1.5     0.01558690     -5417.5405677754  3.09E-01
   332 Broy./Diag. 0.10E-01    1.5     0.02592659     -5417.8016260963 -2.61E-01
   333 Broy./Diag. 0.10E-01    1.5     0.00779820     -5417.5530244041  2.49E-01
   334 Broy./Diag. 0.10E-01    1.5     0.00525831     -5417.6069903096 -5.40E-02
   335 Broy./Diag. 0.10E-01    1.5     0.00791248     -5417.5028840151  1.04E-01
   336 Broy./Diag. 0.10E-01    1.5     0.01463951     -5417.5165518609 -1.37E-02
   337 Broy./Diag. 0.10E-01    1.5     0.00258000     -5417.5570742295 -4.05E-02
   338 Broy./Diag. 0.10E-01    1.5     0.00948279     -5417.6005285435 -4.35E-02
   339 Broy./Diag. 0.10E-01    1.5     0.01565852     -5417.7861755821 -1.86E-01
   340 Broy./Diag. 0.10E-01    1.5     0.00417447     -5417.7818467789  4.33E-03
   341 Broy./Diag. 0.10E-01    1.5     0.00763592     -5417.7565807641  2.53E-02
   342 Broy./Diag. 0.10E-01    1.5     0.01303915     -5417.8448686092 -8.83E-02
   343 Broy./Diag. 0.10E-01    1.5     0.00919486     -5417.6948462881  1.50E-01
   344 Broy./Diag. 0.10E-01    1.5     0.00815999     -5417.7240123599 -2.92E-02
   345 Broy./Diag. 0.10E-01    1.5     0.01312256     -5417.8179229507 -9.39E-02
   346 Broy./Diag. 0.10E-01    1.5     0.00247515     -5417.7468746418  7.10E-02
   347 Broy./Diag. 0.10E-01    1.5     0.02277882     -5417.8678537527 -1.21E-01
   348 Broy./Diag. 0.10E-01    1.5     0.03881055     -5417.8692066229 -1.35E-03
   349 Broy./Diag. 0.10E-01    1.5     0.00374986     -5417.9254403658 -5.62E-02
   350 Broy./Diag. 0.10E-01    1.5     0.03875566     -5417.7465708035  1.79E-01
   351 Broy./Diag. 0.10E-01    1.5     0.01158032     -5417.6623547546  8.42E-02
   352 Broy./Diag. 0.10E-01    1.5     0.00925040     -5417.6163996518  4.60E-02
   353 Broy./Diag. 0.10E-01    1.5     0.01123762     -5417.5993442302  1.71E-02
   354 Broy./Diag. 0.10E-01    1.5     0.02466625     -5417.5830422791  1.63E-02
   355 Broy./Diag. 0.10E-01    1.5     0.02277185     -5417.7840445433 -2.01E-01
   356 Broy./Diag. 0.10E-01    1.5     0.00694012     -5417.6128492408  1.71E-01
   357 Broy./Diag. 0.10E-01    1.5     0.02763869     -5417.6031618671  9.69E-03
   358 Broy./Diag. 0.10E-01    1.5     0.02403780     -5417.8190922703 -2.16E-01
   359 Broy./Diag. 0.10E-01    1.5     0.01482087     -5417.7725654014  4.65E-02
   360 Broy./Diag. 0.10E-01    1.5     0.01226235     -5417.8798319066 -1.07E-01
   361 Broy./Diag. 0.10E-01    1.5     0.02967316     -5417.9157867616 -3.60E-02
   362 Broy./Diag. 0.10E-01    1.5     0.03339157     -5417.9901005886 -7.43E-02
   363 Broy./Diag. 0.10E-01    1.5     0.01576595     -5417.8022108340  1.88E-01
   364 Broy./Diag. 0.10E-01    1.5     0.07702782     -5417.9496365392 -1.47E-01
   365 Broy./Diag. 0.10E-01    1.5     0.05257246     -5418.2508996942 -3.01E-01
   366 Broy./Diag. 0.10E-01    1.5     0.01096849     -5418.4043340287 -1.53E-01
