 DBCSR| CPU Multiplication driver                                           XSMM (U)
 DBCSR| Multrec recursion limit                                              512 (U)
 DBCSR| Multiplication stack size                                           1000 (D)
 DBCSR| Maximum elements for images                                    UNLIMITED (U)
 DBCSR| Multiplicative factor virtual images                                   1 (U)
 DBCSR| Use multiplication densification                                       T (D)
 DBCSR| Multiplication size stacks                                             3 (U)
 DBCSR| Use memory pool for CPU allocation                                     F (U)
 DBCSR| Number of 3D layers                                               SINGLE (U)
 DBCSR| Use MPI memory allocation                                              F (U)
 DBCSR| Use RMA algorithm                                                      F (U)
 DBCSR| Use Communication thread                                               T (U)
 DBCSR| Communication thread load                                             87 (D)
 DBCSR| MPI: My process id                                                     0
 DBCSR| MPI: Number of processes                                             128
 DBCSR| OMP: Current number of threads                                         1
 DBCSR| OMP: Max number of threads                                             1
 DBCSR| Split modifier for TAS multiplication algorithm                  1.0E+00 (U)


  **** **** ******  **  PROGRAM STARTED AT               2023-02-06 16:43:18.604
 ***** ** ***  *** **   PROGRAM STARTED ON                             nid006261
 **    ****   ******    PROGRAM STARTED BY                                cahart
 ***** **    ** ** **   PROGRAM PROCESS ID                                100059
  **** **  *******  **  PROGRAM STARTED IN /mnt/lustre/a2fs-work2/work/e05/e05/c
                                           ahart/postdoc/masters/ni/archer2/bulk
                                           /optimise/multiplicity-65-magnetizati
                                           on/search/1.0E-1_1.0E-3

 CP2K| version string:                                       CP2K version 2023.1
 CP2K| source code revision number:                                  git:b888bd8
 CP2K| cp2kflags: omp libint fftw3 libxc elpa parallel scalapack xsmm plumed2 mk
 CP2K|            l
 CP2K| is freely available from                            https://www.cp2k.org/
 CP2K| Program compiled at                          Tue Jan 24 12:43:13 GMT 2023
 CP2K| Program compiled on                                                  ln03
 CP2K| Program compiled for                                              ARCHER2
 CP2K| Data directory path    /mnt/lustre/a2fs-work1/work/y07/shared/apps/core/c
 CP2K| Input file name                                                  cp2k.inp

 GLOBAL| Force Environment number                                              1
 GLOBAL| Basis set file name                                        BASIS_MOLOPT
 GLOBAL| Potential file name                                      GTH_POTENTIALS
 GLOBAL| MM Potential file name                                     MM_POTENTIAL
 GLOBAL| Coordinate file name                                      __STD_INPUT__
 GLOBAL| Method name                                                        CP2K
 GLOBAL| Project name                                                    Ni_bulk
 GLOBAL| Run type                                                         ENERGY
 GLOBAL| FFT library                                                       FFTW3
 GLOBAL| Diagonalization library                                            ELPA
 GLOBAL| DGEMM library                                                      BLAS
 GLOBAL| Minimum number of eigenvectors for ELPA usage                        16
 GLOBAL| Orthonormality check for eigenvectors                          DISABLED
 GLOBAL| Matrix multiplication library                                 ScaLAPACK
 GLOBAL| All-to-all communication in single precision                          F
 GLOBAL| FFTs using library dependent lengths                                  F
 GLOBAL| Grid backend                                                       AUTO
 GLOBAL| Global print level                                               MEDIUM
 GLOBAL| MPI I/O enabled                                                       T
 GLOBAL| Total number of message passing processes                           128
 GLOBAL| Number of threads for this process                                    1
 GLOBAL| This output is from process                                           0
 GLOBAL| Stack size for threads created by OpenMP (OMP_STACKSIZE)        default
 GLOBAL| CPU model name                          AMD EPYC 7742 64-Core Processor
 GLOBAL| CPUID                                                              1002

 MEMORY| system memory details [Kb]
 MEMORY|                        rank 0           min           max       average
 MEMORY| MemTotal            263528088     263528088     263528088     263528088
 MEMORY| MemFree             242492304     242492304     242492304     242492304
 MEMORY| Buffers                 34820         34820         34820         34820
 MEMORY| Cached                 690628        690628        690628        690628
 MEMORY| Slab                  1497564       1497564       1497564       1497564
 MEMORY| SReclaimable            83148         83148         83148         83148
 MEMORY| MemLikelyFree       243300900     243300900     243300900     243300900


 *** Fundamental physical constants (SI units) ***

 *** Literature: B. J. Mohr and B. N. Taylor,
 ***             CODATA recommended values of the fundamental physical
 ***             constants: 2006, Web Version 5.1
 ***             http://physics.nist.gov/constants

 Speed of light in vacuum [m/s]                             2.99792458000000E+08
 Magnetic constant or permeability of vacuum [N/A**2]       1.25663706143592E-06
 Electric constant or permittivity of vacuum [F/m]          8.85418781762039E-12
 Planck constant (h) [J*s]                                  6.62606896000000E-34
 Planck constant (h-bar) [J*s]                              1.05457162825177E-34
 Elementary charge [C]                                      1.60217648700000E-19
 Electron mass [kg]                                         9.10938215000000E-31
 Electron g factor [ ]                                     -2.00231930436220E+00
 Proton mass [kg]                                           1.67262163700000E-27
 Fine-structure constant                                    7.29735253760000E-03
 Rydberg constant [1/m]                                     1.09737315685270E+07
 Avogadro constant [1/mol]                                  6.02214179000000E+23
 Boltzmann constant [J/K]                                   1.38065040000000E-23
 Atomic mass unit [kg]                                      1.66053878200000E-27
 Bohr radius [m]                                            5.29177208590000E-11

 *** Conversion factors ***

 [u] -> [a.u.]                                              1.82288848426455E+03
 [Angstrom] -> [Bohr] = [a.u.]                              1.88972613288564E+00
 [a.u.] = [Bohr] -> [Angstrom]                              5.29177208590000E-01
 [a.u.] -> [s]                                              2.41888432650478E-17
 [a.u.] -> [fs]                                             2.41888432650478E-02
 [a.u.] -> [J]                                              4.35974393937059E-18
 [a.u.] -> [N]                                              8.23872205491840E-08
 [a.u.] -> [K]                                              3.15774647902944E+05
 [a.u.] -> [kJ/mol]                                         2.62549961709828E+03
 [a.u.] -> [kcal/mol]                                       6.27509468713739E+02
 [a.u.] -> [Pa]                                             2.94210107994716E+13
 [a.u.] -> [bar]                                            2.94210107994716E+08
 [a.u.] -> [atm]                                            2.90362800883016E+08
 [a.u.] -> [eV]                                             2.72113838565563E+01
 [a.u.] -> [Hz]                                             6.57968392072181E+15
 [a.u.] -> [1/cm] (wave numbers)                            2.19474631370540E+05
 [a.u./Bohr**2] -> [1/cm]                                   5.14048714338585E+03
 

 CELL_TOP| Volume [angstrom^3]:                                       344.707437
 CELL_TOP| Vector a [angstrom     7.012     0.000     0.000   |a| =     7.011596
 CELL_TOP| Vector b [angstrom     0.000     7.012     0.000   |b| =     7.011596
 CELL_TOP| Vector c [angstrom     0.000     0.000     7.012   |c| =     7.011596
 CELL_TOP| Angle (b,c), alpha [degree]:                                90.000000
 CELL_TOP| Angle (a,c), beta  [degree]:                                90.000000
 CELL_TOP| Angle (a,b), gamma [degree]:                                90.000000
 CELL_TOP| Numerically orthorhombic:                                         YES
 CELL_TOP| Periodicity                                                       XYZ

 CELL_UC| Volume [angstrom^3]:                                         43.088430
 CELL_UC| Vector a [angstrom]     3.506     0.000     0.000   |a| =     3.505798
 CELL_UC| Vector b [angstrom]     0.000     3.506     0.000   |b| =     3.505798
 CELL_UC| Vector c [angstrom]     0.000     0.000     3.506   |c| =     3.505798
 CELL_UC| Angle (b,c), alpha [degree]:                                 90.000000
 CELL_UC| Angle (a,c), beta  [degree]:                                 90.000000
 CELL_UC| Angle (a,b), gamma [degree]:                                 90.000000
 CELL_UC| Numerically orthorhombic:                                          YES
 CELL_UC| Periodicity                                                        XYZ

 GENERATE|  Preliminary Number of Bonds generated:                             0
 GENERATE|  Achieved consistency in connectivity generation.

 CELL| Volume [angstrom^3]:                                           344.707437
 CELL| Vector a [angstrom]:       7.012     0.000     0.000   |a| =     7.011596
 CELL| Vector b [angstrom]:       0.000     7.012     0.000   |b| =     7.011596
 CELL| Vector c [angstrom]:       0.000     0.000     7.012   |c| =     7.011596
 CELL| Angle (b,c), alpha [degree]:                                    90.000000
 CELL| Angle (a,c), beta  [degree]:                                    90.000000
 CELL| Angle (a,b), gamma [degree]:                                    90.000000
 CELL| Numerically orthorhombic:                                             YES
 CELL| Periodicity                                                           XYZ

 CELL_REF| Volume [angstrom^3]:                                       344.707437
 CELL_REF| Vector a [angstrom     7.012     0.000     0.000   |a| =     7.011596
 CELL_REF| Vector b [angstrom     0.000     7.012     0.000   |b| =     7.011596
 CELL_REF| Vector c [angstrom     0.000     0.000     7.012   |c| =     7.011596
 CELL_REF| Angle (b,c), alpha [degree]:                                90.000000
 CELL_REF| Angle (a,c), beta  [degree]:                                90.000000
 CELL_REF| Angle (a,b), gamma [degree]:                                90.000000
 CELL_REF| Numerically orthorhombic:                                         YES
 CELL_REF| Periodicity                                                       XYZ

 *******************************************************************************
 *******************************************************************************
 **                                                                           **
 **     #####                         ##              ##                      **
 **    ##   ##            ##          ##              ##                      **
 **   ##     ##                       ##            ######                    **
 **   ##     ##  ##   ##  ##   #####  ##  ##   ####   ##    #####    #####    **
 **   ##     ##  ##   ##  ##  ##      ## ##   ##      ##   ##   ##  ##   ##   **
 **   ##  ## ##  ##   ##  ##  ##      ####     ###    ##   ######   ######    **
 **    ##  ###   ##   ##  ##  ##      ## ##      ##   ##   ##       ##        **
 **     #######   #####   ##   #####  ##  ##  ####    ##    #####   ##        **
 **           ##                                                    ##        **
 **                                                                           **
 **                                                ... make the atoms dance   **
 **                                                                           **
 **            Copyright (C) by CP2K developers group (2000-2022)             **
 **                      J. Chem. Phys. 152, 194103 (2020)                    **
 **                                                                           **
 *******************************************************************************

 *** WARNING in qs_environment.F:1470 :: More ADDED_MOs requested for beta ***
 *** spin than available.                                                  ***


 *** WARNING in qs_environment.F:1486 :: More added MOs requested than     ***
 *** available. The full set of unoccupied MOs will be used. Use           ***
 *** 'ADDED_MOS -1' to always use all available MOs and to get rid of this ***
 *** warning.                                                              ***


 DFT| Spin unrestricted (spin-polarized) Kohn-Sham calculation               UKS
 DFT| Multiplicity                                                            65
 DFT| Number of spin states                                                    2
 DFT| Charge                                                                   0
 DFT| Self-interaction correction (SIC)                                       NO
 DFT| Cutoffs: density                                              1.000000E-10
 DFT|          gradient                                             1.000000E-10
 DFT|          tau                                                  1.000000E-10
 DFT|          cutoff_smoothing_range                               0.000000E+00
 DFT| XC density smoothing                                                  NONE
 DFT| XC derivatives                                                          PW

 FUNCTIONAL| PBE:
 FUNCTIONAL| J.P.Perdew, K.Burke, M.Ernzerhof, Phys. Rev. Letter, vol. 77, n 18,
 FUNCTIONAL|  pp. 3865-3868, (1996){spin polarized}                             


 QS| Method:                                                                 GPW
 QS| Density plane wave grid type                        NON-SPHERICAL FULLSPACE
 QS| Number of grid levels:                                                    5
 QS| Density cutoff [a.u.]:                                                300.0
 QS| Multi grid cutoff [a.u.]: 1) grid level                               300.0
 QS|                           2) grid level                               100.0
 QS|                           3) grid level                                33.3
 QS|                           4) grid level                                11.1
 QS|                           5) grid level                                 3.7
 QS| Grid level progression factor:                                          3.0
 QS| Relative density cutoff [a.u.]:                                        30.0
 QS| Interaction thresholds: eps_pgf_orb:                                1.0E-06
 QS|                         eps_filter_matrix:                          0.0E+00
 QS|                         eps_core_charge:                            1.0E-14
 QS|                         eps_rho_gspace:                             1.0E-12
 QS|                         eps_rho_rspace:                             1.0E-12
 QS|                         eps_gvg_rspace:                             1.0E-06
 QS|                         eps_ppl:                                    1.0E-02
 QS|                         eps_ppnl:                                   1.0E-08


 ATOMIC KIND INFORMATION

  1. Atomic kind: Ni                                    Number of atoms:      32

     Orbital Basis Set                                        DZVP-MOLOPT-SR-GTH

       Number of orbital shell sets:                                           1
       Number of orbital shells:                                               8
       Number of primitive Cartesian functions:                                6
       Number of Cartesian basis functions:                                   31
       Number of spherical basis functions:                                   26
       Norm type:                                                              2

       Normalised Cartesian orbitals:

                        Set   Shell   Orbital            Exponent    Coefficient

                          1       1    2s               10.077428      -0.684558
                                                         5.847736      -0.844524
                                                         2.494033       1.088856
                                                         0.988355       0.395503
                                                         0.344978       0.010224
                                                         0.099466      -0.003250

                          1       2    3s               10.077428       0.096747
                                                         5.847736       0.162504
                                                         2.494033      -0.297192
                                                         0.988355      -0.319752
                                                         0.344978       0.088318
                                                         0.099466       0.118587

                          1       3    4s               10.077428       0.036437
                                                         5.847736      -0.381480
                                                         2.494033       0.003759
                                                         0.988355      -1.048256
                                                         0.344978       0.855825
                                                         0.099466      -0.176350

                          1       4    3px              10.077428      -3.133913
                                                         5.847736       3.027656
                                                         2.494033       2.353227
                                                         0.988355       0.554184
                                                         0.344978       0.019462
                                                         0.099466      -0.000291
                          1       4    3py              10.077428      -3.133913
                                                         5.847736       3.027656
                                                         2.494033       2.353227
                                                         0.988355       0.554184
                                                         0.344978       0.019462
                                                         0.099466      -0.000291
                          1       4    3pz              10.077428      -3.133913
                                                         5.847736       3.027656
                                                         2.494033       2.353227
                                                         0.988355       0.554184
                                                         0.344978       0.019462
                                                         0.099466      -0.000291

                          1       5    4px              10.077428      -0.112729
                                                         5.847736      -0.114008
                                                         2.494033      -0.347303
                                                         0.988355      -0.110323
                                                         0.344978       0.154096
                                                         0.099466       0.058386
                          1       5    4py              10.077428      -0.112729
                                                         5.847736      -0.114008
                                                         2.494033      -0.347303
                                                         0.988355      -0.110323
                                                         0.344978       0.154096
                                                         0.099466       0.058386
                          1       5    4pz              10.077428      -0.112729
                                                         5.847736      -0.114008
                                                         2.494033      -0.347303
                                                         0.988355      -0.110323
                                                         0.344978       0.154096
                                                         0.099466       0.058386

                          1       6    4dx2             10.077428       8.232726
                                                         5.847736       9.105758
                                                         2.494033       2.849835
                                                         0.988355       0.554319
                                                         0.344978       0.067245
                                                         0.099466       0.001940
                          1       6    4dxy             10.077428      14.259500
                                                         5.847736      15.771636
                                                         2.494033       4.936060
                                                         0.988355       0.960109
                                                         0.344978       0.116472
                                                         0.099466       0.003360
                          1       6    4dxz             10.077428      14.259500
                                                         5.847736      15.771636
                                                         2.494033       4.936060
                                                         0.988355       0.960109
                                                         0.344978       0.116472
                                                         0.099466       0.003360
                          1       6    4dy2             10.077428       8.232726
                                                         5.847736       9.105758
                                                         2.494033       2.849835
                                                         0.988355       0.554319
                                                         0.344978       0.067245
                                                         0.099466       0.001940
                          1       6    4dyz             10.077428      14.259500
                                                         5.847736      15.771636
                                                         2.494033       4.936060
                                                         0.988355       0.960109
                                                         0.344978       0.116472
                                                         0.099466       0.003360
                          1       6    4dz2             10.077428       8.232726
                                                         5.847736       9.105758
                                                         2.494033       2.849835
                                                         0.988355       0.554319
                                                         0.344978       0.067245
                                                         0.099466       0.001940

                          1       7    5dx2             10.077428      -2.715373
                                                         5.847736      -4.020640
                                                         2.494033      -1.397569
                                                         0.988355      -0.076143
                                                         0.344978       0.033435
                                                         0.099466       0.026032
                          1       7    5dxy             10.077428      -4.703164
                                                         5.847736      -6.963952
                                                         2.494033      -2.420661
                                                         0.988355      -0.131883
                                                         0.344978       0.057911
                                                         0.099466       0.045088
                          1       7    5dxz             10.077428      -4.703164
                                                         5.847736      -6.963952
                                                         2.494033      -2.420661
                                                         0.988355      -0.131883
                                                         0.344978       0.057911
                                                         0.099466       0.045088
                          1       7    5dy2             10.077428      -2.715373
                                                         5.847736      -4.020640
                                                         2.494033      -1.397569
                                                         0.988355      -0.076143
                                                         0.344978       0.033435
                                                         0.099466       0.026032
                          1       7    5dyz             10.077428      -4.703164
                                                         5.847736      -6.963952
                                                         2.494033      -2.420661
                                                         0.988355      -0.131883
                                                         0.344978       0.057911
                                                         0.099466       0.045088
                          1       7    5dz2             10.077428      -2.715373
                                                         5.847736      -4.020640
                                                         2.494033      -1.397569
                                                         0.988355      -0.076143
                                                         0.344978       0.033435
                                                         0.099466       0.026032

                          1       8    5fx3             10.077428      -0.467694
                                                         5.847736       0.618100
                                                         2.494033       0.066069
                                                         0.988355       0.262898
                                                         0.344978       0.004720
                                                         0.099466       0.007748
                          1       8    5fx2y            10.077428      -1.045795
                                                         5.847736       1.382114
                                                         2.494033       0.147734
                                                         0.988355       0.587859
                                                         0.344978       0.010555
                                                         0.099466       0.017325
                          1       8    5fx2z            10.077428      -1.045795
                                                         5.847736       1.382114
                                                         2.494033       0.147734
                                                         0.988355       0.587859
                                                         0.344978       0.010555
                                                         0.099466       0.017325
                          1       8    5fxy2            10.077428      -1.045795
                                                         5.847736       1.382114
                                                         2.494033       0.147734
                                                         0.988355       0.587859
                                                         0.344978       0.010555
                                                         0.099466       0.017325
                          1       8    5fxyz            10.077428      -1.811371
                                                         5.847736       2.393892
                                                         2.494033       0.255883
                                                         0.988355       1.018201
                                                         0.344978       0.018282
                                                         0.099466       0.030008
                          1       8    5fxz2            10.077428      -1.045795
                                                         5.847736       1.382114
                                                         2.494033       0.147734
                                                         0.988355       0.587859
                                                         0.344978       0.010555
                                                         0.099466       0.017325
                          1       8    5fy3             10.077428      -0.467694
                                                         5.847736       0.618100
                                                         2.494033       0.066069
                                                         0.988355       0.262898
                                                         0.344978       0.004720
                                                         0.099466       0.007748
                          1       8    5fy2z            10.077428      -1.045795
                                                         5.847736       1.382114
                                                         2.494033       0.147734
                                                         0.988355       0.587859
                                                         0.344978       0.010555
                                                         0.099466       0.017325
                          1       8    5fyz2            10.077428      -1.045795
                                                         5.847736       1.382114
                                                         2.494033       0.147734
                                                         0.988355       0.587859
                                                         0.344978       0.010555
                                                         0.099466       0.017325
                          1       8    5fz3             10.077428      -0.467694
                                                         5.847736       0.618100
                                                         2.494033       0.066069
                                                         0.988355       0.262898
                                                         0.344978       0.004720
                                                         0.099466       0.007748

       Atomic covalent radius [Angstrom]:                                  1.150

       Atomic van der Waals radius [Angstrom]:                             1.630

     GTH Potential information for                                   GTH-PBE-q18

       Description:                       Goedecker-Teter-Hutter pseudopotential
                                           Goedecker et al., PRB 54, 1703 (1996)
                                          Hartwigsen et al., PRB 58, 3641 (1998)
                                                      Krack, TCA 114, 145 (2005)

       Gaussian exponent of the core charge distribution:               4.081633
       Electronic configuration (s p d ...):                           4   6   8

       Parameters of the local part of the GTH pseudopotential:

                          rloc        C1          C2          C3          C4
                        0.350000    2.102166    0.648484

       Parameters of the non-local part of the GTH pseudopotential:

                   l      r(l)      h(i,j,l)

                   0    0.261295    0.622658    9.970227
                                    9.970227  -12.871507
                   1    0.224253  -11.142708   12.429566
                                   12.429566  -14.706861
                   2    0.215348  -12.628146


 MOLECULE KIND INFORMATION


 All atoms are their own molecule, skipping detailed information


 TOTAL NUMBERS AND MAXIMUM NUMBERS

  Total number of            - Atomic kinds:                                   1
                             - Atoms:                                         32
                             - Shell sets:                                    32
                             - Shells:                                       256
                             - Primitive Cartesian functions:                192
                             - Cartesian basis functions:                    992
                             - Spherical basis functions:                    832

  Maximum angular momentum of- Orbital basis functions:                        3
                             - Local part of the GTH pseudopotential:          2
                             - Non-local part of the GTH pseudopotential:      3


 MODULE QUICKSTEP: ATOMIC COORDINATES IN ANGSTROM

   Atom Kind Element         X             Y             Z       Z(eff)     Mass
      1    1 Ni   28      0.000000      0.000000      0.000000  18.0000  58.6934
      2    1 Ni   28      0.000000      1.752900      1.752900  18.0000  58.6934
      3    1 Ni   28      1.752900      0.000000      1.752900  18.0000  58.6934
      4    1 Ni   28      1.752900      1.752900      0.000000  18.0000  58.6934
      5    1 Ni   28      3.505798      0.000000      0.000000  18.0000  58.6934
      6    1 Ni   28      3.505798      1.752900      1.752900  18.0000  58.6934
      7    1 Ni   28      5.258698      0.000000      1.752900  18.0000  58.6934
      8    1 Ni   28      5.258698      1.752900      0.000000  18.0000  58.6934
      9    1 Ni   28      0.000000      3.505798      0.000000  18.0000  58.6934
     10    1 Ni   28      0.000000      5.258698      1.752900  18.0000  58.6934
     11    1 Ni   28      1.752900      3.505798      1.752900  18.0000  58.6934
     12    1 Ni   28      1.752900      5.258698      0.000000  18.0000  58.6934
     13    1 Ni   28      3.505798      3.505798      0.000000  18.0000  58.6934
     14    1 Ni   28      3.505798      5.258698      1.752900  18.0000  58.6934
     15    1 Ni   28      5.258698      3.505798      1.752900  18.0000  58.6934
     16    1 Ni   28      5.258698      5.258698      0.000000  18.0000  58.6934
     17    1 Ni   28      0.000000      0.000000      3.505798  18.0000  58.6934
     18    1 Ni   28      0.000000      1.752900      5.258698  18.0000  58.6934
     19    1 Ni   28      1.752900      0.000000      5.258698  18.0000  58.6934
     20    1 Ni   28      1.752900      1.752900      3.505798  18.0000  58.6934
     21    1 Ni   28      3.505798      0.000000      3.505798  18.0000  58.6934
     22    1 Ni   28      3.505798      1.752900      5.258698  18.0000  58.6934
     23    1 Ni   28      5.258698      0.000000      5.258698  18.0000  58.6934
     24    1 Ni   28      5.258698      1.752900      3.505798  18.0000  58.6934
     25    1 Ni   28      0.000000      3.505798      3.505798  18.0000  58.6934
     26    1 Ni   28      0.000000      5.258698      5.258698  18.0000  58.6934
     27    1 Ni   28      1.752900      3.505798      5.258698  18.0000  58.6934
     28    1 Ni   28      1.752900      5.258698      3.505798  18.0000  58.6934
     29    1 Ni   28      3.505798      3.505798      3.505798  18.0000  58.6934
     30    1 Ni   28      3.505798      5.258698      5.258698  18.0000  58.6934
     31    1 Ni   28      5.258698      3.505798      5.258698  18.0000  58.6934
     32    1 Ni   28      5.258698      5.258698      3.505798  18.0000  58.6934



 SCF PARAMETERS         Density guess:                                    ATOMIC
                        --------------------------------------------------------
                        max_scf:                                             500
                        max_scf_history:                                       0
                        max_diis:                                             10
                        --------------------------------------------------------
                        eps_scf:                                        1.00E-08
                        eps_scf_history:                                0.00E+00
                        eps_diis:                                       1.00E-01
                        eps_eigval:                                     1.00E-05
                        --------------------------------------------------------
                        level_shift [a.u.]:                             0.000000
                        added MOs                                       512  576
                        --------------------------------------------------------
                        Mixing method:                            BROYDEN_MIXING
                                                charge density mixing in g-space
                        --------------------------------------------------------
                        Smear method:                                FERMI_DIRAC
                        Electronic temperature [K]:                        500.0
                        Electronic temperature [a.u.]:                  1.58E-03
                        Accuracy threshold:                             1.00E-10
                        --------------------------------------------------------
                        No outer SCF

 PW_GRID| Information for grid number                                          1
 PW_GRID| Grid distributed over                                   128 processors
 PW_GRID| Real space group dimensions                                     8   16
 PW_GRID| the grid is blocked:                                               YES
 PW_GRID| Cutoff [a.u.]                                                    300.0
 PW_GRID| spherical cutoff:                                                   NO
 PW_GRID|   Bounds   1            -54      53                Points:         108
 PW_GRID|   Bounds   2            -54      53                Points:         108
 PW_GRID|   Bounds   3            -54      53                Points:         108
 PW_GRID| Volume element (a.u.^3)  0.1847E-02     Volume (a.u.^3)      2326.2011
 PW_GRID| Grid span                                                    FULLSPACE
 PW_GRID|   Distribution                         Average         Max         Min
 PW_GRID|   G-Vectors                             9841.5       10584        8424
 PW_GRID|   G-Rays                                  91.1          98          78
 PW_GRID|   Real Space Points                     9841.5       10584        8424

 PW_GRID| Information for grid number                                          2
 PW_GRID| Number of the reference grid                                         1
 PW_GRID| Grid distributed over                                   128 processors
 PW_GRID| Real space group dimensions                                     8   16
 PW_GRID| the grid is blocked:                                                NO
 PW_GRID| Cutoff [a.u.]                                                    100.0
 PW_GRID| spherical cutoff:                                                   NO
 PW_GRID|   Bounds   1            -30      29                Points:          60
 PW_GRID|   Bounds   2            -30      29                Points:          60
 PW_GRID|   Bounds   3            -30      29                Points:          60
 PW_GRID| Volume element (a.u.^3)  0.1077E-01     Volume (a.u.^3)      2326.2011
 PW_GRID| Grid span                                                    FULLSPACE
 PW_GRID|   Distribution                         Average         Max         Min
 PW_GRID|   G-Vectors                             1687.5        5880           0
 PW_GRID|   G-Rays                                  28.1          98           0
 PW_GRID|   Real Space Points                     1687.5        1920        1260

 PW_GRID| Information for grid number                                          3
 PW_GRID| Number of the reference grid                                         1
 PW_GRID| Grid distributed over                                   128 processors
 PW_GRID| Real space group dimensions                                     8   16
 PW_GRID| the grid is blocked:                                                NO
 PW_GRID| Cutoff [a.u.]                                                     33.3
 PW_GRID| spherical cutoff:                                                   NO
 PW_GRID|   Bounds   1            -18      17                Points:          36
 PW_GRID|   Bounds   2            -18      17                Points:          36
 PW_GRID|   Bounds   3            -18      17                Points:          36
 PW_GRID| Volume element (a.u.^3)  0.4986E-01     Volume (a.u.^3)      2326.2011
 PW_GRID| Grid span                                                    FULLSPACE
 PW_GRID|   Distribution                         Average         Max         Min
 PW_GRID|   G-Vectors                              364.5        3528           0
 PW_GRID|   G-Rays                                  10.1          98           0
 PW_GRID|   Real Space Points                      364.5         540         288

 PW_GRID| Information for grid number                                          4
 PW_GRID| Number of the reference grid                                         1
 PW_GRID| Grid distributed over                                   128 processors
 PW_GRID| Real space group dimensions                                     8   16
 PW_GRID| the grid is blocked:                                                NO
 PW_GRID| Cutoff [a.u.]                                                     11.1
 PW_GRID| spherical cutoff:                                                   NO
 PW_GRID|   Bounds   1            -10       9                Points:          20
 PW_GRID|   Bounds   2            -10       9                Points:          20
 PW_GRID|   Bounds   3            -10       9                Points:          20
 PW_GRID| Volume element (a.u.^3)  0.2908         Volume (a.u.^3)      2326.2011
 PW_GRID| Grid span                                                    FULLSPACE
 PW_GRID|   Distribution                         Average         Max         Min
 PW_GRID|   G-Vectors                               62.5        1400           0
 PW_GRID|   G-Rays                                   3.1          70           0
 PW_GRID|   Real Space Points                       62.5         120          40

 PW_GRID| Information for grid number                                          5
 PW_GRID| Number of the reference grid                                         1
 PW_GRID| Grid distributed over                                   128 processors
 PW_GRID| Real space group dimensions                                     8   16
 PW_GRID| the grid is blocked:                                                NO
 PW_GRID| Cutoff [a.u.]                                                      3.7
 PW_GRID| spherical cutoff:                                                   NO
 PW_GRID|   Bounds   1             -6       5                Points:          12
 PW_GRID|   Bounds   2             -6       5                Points:          12
 PW_GRID|   Bounds   3             -6       5                Points:          12
 PW_GRID| Volume element (a.u.^3)   1.346         Volume (a.u.^3)      2326.2011
 PW_GRID| Grid span                                                    FULLSPACE
 PW_GRID|   Distribution                         Average         Max         Min
 PW_GRID|   G-Vectors                               13.5         432           0
 PW_GRID|   G-Rays                                   1.1          36           0
 PW_GRID|   Real Space Points                       13.5          24           0

 POISSON| Solver                                                        PERIODIC
 POISSON| Periodicity                                                        XYZ

 RS_GRID| Information for grid number                                          1
 RS_GRID|   Bounds   1            -54      53                Points:         108
 RS_GRID|   Bounds   2            -54      53                Points:         108
 RS_GRID|   Bounds   3            -54      53                Points:         108
 RS_GRID| Real space distribution over                                  8 groups
 RS_GRID| Real space distribution along direction                              2
 RS_GRID| Border size                                                         28
 RS_GRID| Real space distribution over                                 16 groups
 RS_GRID| Real space distribution along direction                              3
 RS_GRID| Border size                                                         28
 RS_GRID|   Distribution                         Average         Max         Min
 RS_GRID|   Planes                                  69.5          70          69
 RS_GRID|   Distribution                         Average         Max         Min
 RS_GRID|   Planes                                  62.8          63          62

 RS_GRID| Information for grid number                                          2
 RS_GRID|   Bounds   1            -30      29                Points:          60
 RS_GRID|   Bounds   2            -30      29                Points:          60
 RS_GRID|   Bounds   3            -30      29                Points:          60
 RS_GRID| Real space fully replicated
 RS_GRID| Group size                                                           1

 RS_GRID| Information for grid number                                          3
 RS_GRID|   Bounds   1            -18      17                Points:          36
 RS_GRID|   Bounds   2            -18      17                Points:          36
 RS_GRID|   Bounds   3            -18      17                Points:          36
 RS_GRID| Real space fully replicated
 RS_GRID| Group size                                                           1

 RS_GRID| Information for grid number                                          4
 RS_GRID|   Bounds   1            -10       9                Points:          20
 RS_GRID|   Bounds   2            -10       9                Points:          20
 RS_GRID|   Bounds   3            -10       9                Points:          20
 RS_GRID| Real space fully replicated
 RS_GRID| Group size                                                           1

 RS_GRID| Information for grid number                                          5
 RS_GRID|   Bounds   1             -6       5                Points:          12
 RS_GRID|   Bounds   2             -6       5                Points:          12
 RS_GRID|   Bounds   3             -6       5                Points:          12
 RS_GRID| Real space fully replicated
 RS_GRID| Group size                                                           1

 Spin 1

 Number of electrons:                                                        320
 Number of occupied orbitals:                                                320
 Number of molecular orbitals:                                               832

 Spin 2

 Number of electrons:                                                        256
 Number of occupied orbitals:                                                256
 Number of molecular orbitals:                                               832

 Number of orbital functions:                                                832
 Number of independent orbital functions:                                    832

 Extrapolation method: initial_guess

 Atomic guess: The first density matrix is obtained in terms of atomic orbitals
               and electronic configurations assigned to each atomic kind

 Guess for atomic kind: Ni

 Electronic structure
    Total number of core electrons                                         10.00
    Total number of valence electrons                                      18.00
    Total number of electrons                                              28.00
    Multiplicity                                                         triplet
    Alpha Electrons
    S   [  1.00  1.00] 1.00  1.00
    P   [  3.00] 3.00
    D      5.00
    Beta Electrons
    S   [  1.00  1.00] 1.00  1.00
    P   [  3.00] 3.00
    D      3.00


 *******************************************************************************
                  Iteration          Convergence                     Energy [au]
 *******************************************************************************
                          1         1.61955                    -167.102733612646
                          2         17.9576                    -156.964728082342
                          3         2.81889                    -168.347679739779
                          4        0.300879                    -168.639029543130
                          5        0.133614                    -168.643718125190
                          6        0.642384E-01                -168.645928334381
                          7        0.411618E-01                -168.646613747745
                          8        0.978516E-02                -168.646711132537
                          9        0.508781E-01                -168.646571314898
                         10        0.138948E-01                -168.646700563277
                         11        0.138660E-01                -168.646700237384
                         12        0.629414E-02                -168.646712261956
                         13        0.566241E-02                -168.646713151996
                         14        0.495313E-02                -168.646714117454
                         15        0.421991E-02                -168.646714987798
                         16        0.338228E-02                -168.646715812720
                         17        0.416465E-02                -168.646716816326
                         18        0.344616E-02                -168.646717043212
                         19        0.330991E-02                -168.646717101846
                         20        0.313342E-02                -168.646717172930
                         21        0.281829E-02                -168.646717286496
                         22        0.848656E-03                -168.646717732580
                         23        0.109512E-02                -168.646717723740
                         24        0.104995E-02                -168.646717732012
                         25        0.102855E-02                -168.646717736906
                         26        0.100245E-02                -168.646717743176
                         27        0.676032E-03                -168.646717806927
                         28        0.602106E-03                -168.646717861030
                         29        0.625282E-03                -168.646717860099
                         30        0.624945E-03                -168.646717860052
                         31        0.623853E-03                -168.646717860100
                         32        0.624150E-03                -168.646717860067
                         33        0.237289E-03                -168.646717879062
                         34        0.180801E-03                -168.646717882280
                         35        0.181452E-03                -168.646717882256
                         36        0.181661E-03                -168.646717882245
                         37        0.181696E-03                -168.646717882243
                         38        0.180660E-03                -168.646717882285
                         39        0.167278E-03                -168.646717884960
                         40        0.108251E-03                -168.646717886084
                         41        0.108355E-03                -168.646717886083
                         42        0.108427E-03                -168.646717886083
                         43        0.108486E-03                -168.646717886083
                         44        0.108485E-03                -168.646717886083
                         45        0.694677E-04                -168.646717886478
                         46        0.318666E-04                -168.646717886752
                         47        0.318508E-04                -168.646717886753
                         48        0.318379E-04                -168.646717886753
                         49        0.318252E-04                -168.646717886753
                         50        0.320703E-04                -168.646717886751
 No convergence within maximum number of iterations 

 Energy components [Hartree]           Total Energy ::         -168.646717886751
                                        Band Energy ::          -26.584923955507
                                     Kinetic Energy ::           97.352330251814
                                   Potential Energy ::         -265.999048138565
                                      Virial (-V/T) ::            2.732333652934
                                        Core Energy ::         -299.595021414610
                                          XC Energy ::          -16.265210292971
                                     Coulomb Energy ::          147.213513820830
                       Total Pseudopotential Energy ::         -397.033695283644
                       Local Pseudopotential Energy ::         -362.697061997994
                    Nonlocal Pseudopotential Energy ::          -34.336633285650
                                        Confinement ::            0.863436172188

 Orbital energies  State     Spin  L     Occupation   Energy[a.u.]    Energy[eV]

                       1    alpha  0          1.000      -4.198782   -114.254674
                       2    alpha  0          1.000      -0.185813     -5.056229
                       1     beta  0          1.000      -4.107299   -111.765292
                       2     beta  0          1.000      -0.171331     -4.662162

                       1    alpha  1          3.000      -2.604156    -70.862688
                       1     beta  1          3.000      -2.515143    -68.440529

                       1    alpha  2          5.000      -0.348813     -9.491687
                       1     beta  2          3.000      -0.273245     -7.435375


 Total Electron Density at R=0:                                         0.030313

 Spin 1
 Re-scaling the density matrix to get the right number of electrons for spin 1
                  # Electrons              Trace(P)               Scaling factor
                          320               320.032                        1.000

 Spin 2
 Re-scaling the density matrix to get the right number of electrons for spin 2
                  # Electrons              Trace(P)               Scaling factor
                          256               256.035                        1.000


 SCF WAVEFUNCTION OPTIMIZATION

  Step     Update method      Time    Convergence         Total energy    Change
  ------------------------------------------------------------------------------
     1 NoMix/Diag. 0.10E+00    1.1     0.80945817     -5430.5035547420 -5.43E+03
     2 Broy./Diag. 0.10E+00    0.6     0.01935387     -5366.3946977412  6.41E+01
     3 Broy./Diag. 0.10E+00    0.7     0.01806028     -5397.8365223923 -3.14E+01
     4 Broy./Diag. 0.10E+00    0.6     0.02415850     -5410.3197104756 -1.25E+01
     5 Broy./Diag. 0.10E+00    0.6     0.01150274     -5409.5875147863  7.32E-01
     6 Broy./Diag. 0.10E+00    0.6     0.03535871     -5406.0185092655  3.57E+00
     7 Broy./Diag. 0.10E+00    0.6     0.00970267     -5421.7368916152 -1.57E+01
     8 Broy./Diag. 0.10E+00    0.6     0.01988979     -5426.2137445323 -4.48E+00
     9 Broy./Diag. 0.10E+00    0.6     0.01000976     -5425.5906135574  6.23E-01
    10 Broy./Diag. 0.10E+00    0.6     0.00297236     -5423.2658411129  2.32E+00
    11 Broy./Diag. 0.10E+00    0.6     0.00927036     -5421.7507408994  1.52E+00
    12 Broy./Diag. 0.10E+00    0.6     0.00193549     -5419.9785934062  1.77E+00
    13 Broy./Diag. 0.10E+00    0.6     0.00148210     -5418.6213237232  1.36E+00
    14 Broy./Diag. 0.10E+00    0.6     0.00144602     -5417.8679559706  7.53E-01
    15 Broy./Diag. 0.10E+00    0.6     0.00035211     -5417.8242478325  4.37E-02
    16 Broy./Diag. 0.10E+00    0.6     0.00032157     -5417.8290016482 -4.75E-03
    17 Broy./Diag. 0.10E+00    0.6     0.00011129     -5417.8270487806  1.95E-03
    18 Broy./Diag. 0.10E+00    0.6     0.00005589     -5417.8260554197  9.93E-04
    19 Broy./Diag. 0.10E+00    0.6     0.00005151     -5417.8285739704 -2.52E-03
    20 Broy./Diag. 0.10E+00    0.6     0.00001404     -5417.8308510514 -2.28E-03
    21 Broy./Diag. 0.10E+00    0.6     0.00000982     -5417.8289334575  1.92E-03
    22 Broy./Diag. 0.10E+00    0.6     0.00001858     -5417.8281580040  7.75E-04
    23 Broy./Diag. 0.10E+00    0.6     0.00004455     -5417.8274102332  7.48E-04
    24 Broy./Diag. 0.10E+00    0.6     0.00005770     -5417.8291646790 -1.75E-03
    25 Broy./Diag. 0.10E+00    0.6     0.00001427     -5417.8312780385 -2.11E-03
    26 Broy./Diag. 0.10E+00    0.6     0.00000961     -5417.8319826969 -7.05E-04
    27 Broy./Diag. 0.10E+00    0.6     0.00000522     -5417.8319921284 -9.43E-06
    28 Broy./Diag. 0.10E+00    0.6     0.00000326     -5417.8320086674 -1.65E-05
    29 Broy./Diag. 0.10E+00    0.6     0.00000259     -5417.8320119178 -3.25E-06
    30 Broy./Diag. 0.10E+00    0.6     0.00000194     -5417.8320690626 -5.71E-05
    31 Broy./Diag. 0.10E+00    0.6     0.00000717     -5417.8320615201  7.54E-06
    32 Broy./Diag. 0.10E+00    0.6     0.00000983     -5417.8320048066  5.67E-05
    33 Broy./Diag. 0.10E+00    0.6     0.00001508     -5417.8320536134 -4.88E-05
    34 Broy./Diag. 0.10E+00    0.6     0.00001747     -5417.8321075942 -5.40E-05
    35 Broy./Diag. 0.10E+00    0.6     0.00000119     -5417.8320948062  1.28E-05
    36 Broy./Diag. 0.10E+00    0.6     0.00000539     -5417.8320894207  5.39E-06
    37 Broy./Diag. 0.10E+00    0.6     0.00000352     -5417.8320784643  1.10E-05
    38 Broy./Diag. 0.10E+00    0.6     0.00000307     -5417.8320642406  1.42E-05
    39 Broy./Diag. 0.10E+00    0.6     0.00000901     -5417.8320726251 -8.38E-06
    40 Broy./Diag. 0.10E+00    0.6     0.00000627     -5417.8320817672 -9.14E-06
    41 Broy./Diag. 0.10E+00    0.6     0.00000524     -5417.8321141516 -3.24E-05
    42 Broy./Diag. 0.10E+00    0.6     0.00000253     -5417.8321547219 -4.06E-05
    43 Broy./Diag. 0.10E+00    0.6     0.00000341     -5417.8321756155 -2.09E-05
    44 Broy./Diag. 0.10E+00    0.6     0.00000752     -5417.8321821451 -6.53E-06
    45 Broy./Diag. 0.10E+00    0.6     0.00000419     -5417.8321863349 -4.19E-06
    46 Broy./Diag. 0.10E+00    0.6     0.00000057     -5417.8321877782 -1.44E-06
    47 Broy./Diag. 0.10E+00    0.6     0.00000258     -5417.8321996375 -1.19E-05
    48 Broy./Diag. 0.10E+00    0.6     0.00000195     -5417.8322310315 -3.14E-05
    49 Broy./Diag. 0.10E+00    0.6     0.00000022     -5417.8322439055 -1.29E-05
    50 Broy./Diag. 0.10E+00    0.6     0.00000278     -5417.8322485194 -4.61E-06
    51 Broy./Diag. 0.10E+00    0.6     0.00000242     -5417.8322452355  3.28E-06
    52 Broy./Diag. 0.10E+00    0.6     0.00000065     -5417.8322573343 -1.21E-05
    53 Broy./Diag. 0.10E+00    0.6     0.00000082     -5417.8322690545 -1.17E-05
    54 Broy./Diag. 0.10E+00    0.6     0.00000079     -5417.8322761327 -7.08E-06
    55 Broy./Diag. 0.10E+00    0.6     0.00000226     -5417.8322762698 -1.37E-07
    56 Broy./Diag. 0.10E+00    0.6     0.00000056     -5417.8322551270  2.11E-05
    57 Broy./Diag. 0.10E+00    0.6     0.00000143     -5417.8322444598  1.07E-05
    58 Broy./Diag. 0.10E+00    0.6     0.00000231     -5417.8322564777 -1.20E-05
    59 Broy./Diag. 0.10E+00    0.6     0.00000145     -5417.8322813164 -2.48E-05
    60 Broy./Diag. 0.10E+00    0.6     0.00000094     -5417.8322820901 -7.74E-07
    61 Broy./Diag. 0.10E+00    0.6     0.00000041     -5417.8322780896  4.00E-06
    62 Broy./Diag. 0.10E+00    0.6     0.00000125     -5417.8322742089  3.88E-06
    63 Broy./Diag. 0.10E+00    0.6     0.00000121     -5417.8322681409  6.07E-06
    64 Broy./Diag. 0.10E+00    0.6     0.00000041     -5417.8322594076  8.73E-06
    65 Broy./Diag. 0.10E+00    0.6     0.00000162     -5417.8322682185 -8.81E-06
    66 Broy./Diag. 0.10E+00    0.6     0.00000127     -5417.8322756357 -7.42E-06
    67 Broy./Diag. 0.10E+00    0.6     0.00000055     -5417.8322661476  9.49E-06
    68 Broy./Diag. 0.10E+00    0.6     0.00000161     -5417.8322694845 -3.34E-06
    69 Broy./Diag. 0.10E+00    0.6     0.00000077     -5417.8322680169  1.47E-06
    70 Broy./Diag. 0.10E+00    0.6     0.00000182     -5417.8322739459 -5.93E-06
    71 Broy./Diag. 0.10E+00    0.6     0.00000044     -5417.8322784009 -4.45E-06
    72 Broy./Diag. 0.10E+00    0.6     0.00000320     -5417.8322815896 -3.19E-06
    73 Broy./Diag. 0.10E+00    0.6     0.00000044     -5417.8322796661  1.92E-06
    74 Broy./Diag. 0.10E+00    0.6     0.00000042     -5417.8322785709  1.10E-06
    75 Broy./Diag. 0.10E+00    0.6     0.00000187     -5417.8322786557 -8.48E-08
    76 Broy./Diag. 0.10E+00    0.6     0.00000405     -5417.8322783404  3.15E-07
    77 Broy./Diag. 0.10E+00    0.6     0.00000063     -5417.8322776971  6.43E-07
    78 Broy./Diag. 0.10E+00    0.6     0.00000306     -5417.8322792138 -1.52E-06
    79 Broy./Diag. 0.10E+00    0.6     0.00000097     -5417.8322748550  4.36E-06
    80 Broy./Diag. 0.10E+00    0.6     0.00000312     -5417.8322761889 -1.33E-06
    81 Broy./Diag. 0.10E+00    0.6     0.00000087     -5417.8322760337  1.55E-07
    82 Broy./Diag. 0.10E+00    0.6     0.00000331     -5417.8322753086  7.25E-07
    83 Broy./Diag. 0.10E+00    0.6     0.00000070     -5417.8322749474  3.61E-07
    84 Broy./Diag. 0.10E+00    0.6     0.00000072     -5417.8322741680  7.79E-07
    85 Broy./Diag. 0.10E+00    0.6     0.00000183     -5417.8322748832 -7.15E-07
    86 Broy./Diag. 0.10E+00    0.6     0.00000390     -5417.8322749344 -5.12E-08
    87 Broy./Diag. 0.10E+00    0.6     0.00000401     -5417.8322761841 -1.25E-06
    88 Broy./Diag. 0.10E+00    0.6     0.00004640     -5417.8322739864  2.20E-06
    89 Broy./Diag. 0.10E+00    0.6     0.00002510     -5417.8322750420 -1.06E-06
    90 Broy./Diag. 0.10E+00    0.6     0.00000286     -5417.8322702687  4.77E-06
    91 Broy./Diag. 0.10E+00    0.6     0.00000159     -5417.8322698790  3.90E-07
    92 Broy./Diag. 0.10E+00    0.6     0.00000237     -5417.8322709312 -1.05E-06
    93 Broy./Diag. 0.10E+00    0.6     0.00000340     -5417.8322701535  7.78E-07
    94 Broy./Diag. 0.10E+00    0.6     0.00000249     -5417.8322696133  5.40E-07
    95 Broy./Diag. 0.10E+00    0.6     0.00000504     -5417.8322646592  4.95E-06
    96 Broy./Diag. 0.10E+00    0.6     0.00000852     -5417.8322609640  3.70E-06
    97 Broy./Diag. 0.10E+00    0.6     0.00000797     -5417.8322682718 -7.31E-06
    98 Broy./Diag. 0.10E+00    0.6     0.00000408     -5417.8322651332  3.14E-06
    99 Broy./Diag. 0.10E+00    0.6     0.00000630     -5417.8322698841 -4.75E-06
   100 Broy./Diag. 0.10E+00    0.6     0.00000075     -5417.8322686555  1.23E-06
   101 Broy./Diag. 0.10E+00    0.6     0.00000068     -5417.8322697111 -1.06E-06
   102 Broy./Diag. 0.10E+00    0.6     0.00000331     -5417.8322697625 -5.14E-08
   103 Broy./Diag. 0.10E+00    0.6     0.00000691     -5417.8322704220 -6.60E-07
   104 Broy./Diag. 0.10E+00    0.6     0.00000528     -5417.8322696888  7.33E-07
   105 Broy./Diag. 0.10E+00    0.6     0.00001072     -5417.8322693578  3.31E-07
   106 Broy./Diag. 0.10E+00    0.6     0.00000456     -5417.8322699669 -6.09E-07
   107 Broy./Diag. 0.10E+00    0.6     0.00000381     -5417.8322709019 -9.35E-07
   108 Broy./Diag. 0.10E+00    0.6     0.00001079     -5417.8322720204 -1.12E-06
   109 Broy./Diag. 0.10E+00    0.6     0.00000273     -5417.8322709337  1.09E-06
   110 Broy./Diag. 0.10E+00    0.6     0.00000235     -5417.8322704118  5.22E-07
   111 Broy./Diag. 0.10E+00    0.6     0.00000201     -5417.8322710312 -6.19E-07
   112 Broy./Diag. 0.10E+00    0.6     0.00000294     -5417.8322714586 -4.27E-07
   113 Broy./Diag. 0.10E+00    0.6     0.00003154     -5417.8322750136 -3.55E-06
   114 Broy./Diag. 0.10E+00    0.6     0.00001018     -5417.8322681941  6.82E-06
   115 Broy./Diag. 0.10E+00    0.6     0.00000371     -5417.8322715931 -3.40E-06
   116 Broy./Diag. 0.10E+00    0.6     0.00000202     -5417.8322701013  1.49E-06
   117 Broy./Diag. 0.10E+00    0.6     0.00000331     -5417.8322672854  2.82E-06
   118 Broy./Diag. 0.10E+00    0.6     0.00000203     -5417.8322677236 -4.38E-07
   119 Broy./Diag. 0.10E+00    0.6     0.00000170     -5417.8322654194  2.30E-06
   120 Broy./Diag. 0.10E+00    0.6     0.00000218     -5417.8322664800 -1.06E-06
   121 Broy./Diag. 0.10E+00    0.6     0.00000256     -5417.8322690823 -2.60E-06
   122 Broy./Diag. 0.10E+00    0.6     0.00000387     -5417.8322730709 -3.99E-06
   123 Broy./Diag. 0.10E+00    0.6     0.00001872     -5417.8322772581 -4.19E-06
   124 Broy./Diag. 0.10E+00    0.6     0.00002046     -5417.8322426807  3.46E-05
   125 Broy./Diag. 0.10E+00    0.6     0.00000815     -5417.8322878975 -4.52E-05
   126 Broy./Diag. 0.10E+00    0.6     0.00000330     -5417.8322641964  2.37E-05
   127 Broy./Diag. 0.10E+00    0.6     0.00000396     -5417.8322614614  2.74E-06
   128 Broy./Diag. 0.10E+00    0.6     0.00000591     -5417.8322567307  4.73E-06
   129 Broy./Diag. 0.10E+00    0.6     0.00001891     -5417.8322456704  1.11E-05
   130 Broy./Diag. 0.10E+00    0.6     0.00000492     -5417.8322521565 -6.49E-06
   131 Broy./Diag. 0.10E+00    0.6     0.00000542     -5417.8322526003 -4.44E-07
   132 Broy./Diag. 0.10E+00    0.6     0.00000443     -5417.8322495466  3.05E-06
   133 Broy./Diag. 0.10E+00    0.6     0.00003375     -5417.8322431882  6.36E-06
   134 Broy./Diag. 0.10E+00    0.6     0.00002820     -5417.8322839207 -4.07E-05
   135 Broy./Diag. 0.10E+00    0.6     0.00009354     -5417.8322761437  7.78E-06
   136 Broy./Diag. 0.10E+00    0.6     0.00001083     -5417.8322730881  3.06E-06
   137 Broy./Diag. 0.10E+00    0.6     0.00001151     -5417.8322832842 -1.02E-05
   138 Broy./Diag. 0.10E+00    0.6     0.00001761     -5417.8322878414 -4.56E-06
   139 Broy./Diag. 0.10E+00    0.6     0.00001970     -5417.8322997389 -1.19E-05
   140 Broy./Diag. 0.10E+00    0.6     0.00012265     -5417.8322968610  2.88E-06
   141 Broy./Diag. 0.10E+00    0.6     0.00004972     -5417.8322689166  2.79E-05
   142 Broy./Diag. 0.10E+00    0.6     0.00000507     -5417.8322668673  2.05E-06
   143 Broy./Diag. 0.10E+00    0.6     0.00000970     -5417.8322607843  6.08E-06
   144 Broy./Diag. 0.10E+00    0.6     0.00001658     -5417.8322613933 -6.09E-07
   145 Broy./Diag. 0.10E+00    0.6     0.00002565     -5417.8322510868  1.03E-05
   146 Broy./Diag. 0.10E+00    0.6     0.00002755     -5417.8322507001  3.87E-07
   147 Broy./Diag. 0.10E+00    0.6     0.00000558     -5417.8322500354  6.65E-07
   148 Broy./Diag. 0.10E+00    0.6     0.00004547     -5417.8322521405 -2.11E-06
   149 Broy./Diag. 0.10E+00    0.6     0.00000787     -5417.8322539588 -1.82E-06
   150 Broy./Diag. 0.10E+00    0.6     0.00002069     -5417.8322605353 -6.58E-06
   151 Broy./Diag. 0.10E+00    0.6     0.00002735     -5417.8322382886  2.22E-05
   152 Broy./Diag. 0.10E+00    0.6     0.00002097     -5417.8322485203 -1.02E-05
   153 Broy./Diag. 0.10E+00    0.6     0.00003048     -5417.8322486810 -1.61E-07
   154 Broy./Diag. 0.10E+00    0.6     0.00004842     -5417.8322500380 -1.36E-06
   155 Broy./Diag. 0.10E+00    0.6     0.00002261     -5417.8322394604  1.06E-05
   156 Broy./Diag. 0.10E+00    0.6     0.00001007     -5417.8322600160 -2.06E-05
   157 Broy./Diag. 0.10E+00    0.6     0.00002131     -5417.8322517337  8.28E-06
   158 Broy./Diag. 0.10E+00    0.6     0.00004141     -5417.8322449438  6.79E-06
   159 Broy./Diag. 0.10E+00    0.6     0.00005408     -5417.8322443869  5.57E-07
   160 Broy./Diag. 0.10E+00    0.6     0.00003086     -5417.8322572161 -1.28E-05
   161 Broy./Diag. 0.10E+00    0.6     0.00003955     -5417.8322446215  1.26E-05
   162 Broy./Diag. 0.10E+00    0.6     0.00006932     -5417.8322732867 -2.87E-05
   163 Broy./Diag. 0.10E+00    0.6     0.00000478     -5417.8322941659 -2.09E-05
   164 Broy./Diag. 0.10E+00    0.6     0.00000730     -5417.8322949351 -7.69E-07
   165 Broy./Diag. 0.10E+00    0.6     0.00000964     -5417.8322950364 -1.01E-07
   166 Broy./Diag. 0.10E+00    0.6     0.00001969     -5417.8322956963 -6.60E-07
   167 Broy./Diag. 0.10E+00    0.6     0.00010543     -5417.8322779957  1.77E-05
   168 Broy./Diag. 0.10E+00    0.6     0.00014923     -5417.8323241307 -4.61E-05
   169 Broy./Diag. 0.10E+00    0.6     0.00003225     -5417.8322560033  6.81E-05
   170 Broy./Diag. 0.10E+00    0.6     0.00002521     -5417.8322573539 -1.35E-06
   171 Broy./Diag. 0.10E+00    0.6     0.00005238     -5417.8322744498 -1.71E-05
   172 Broy./Diag. 0.10E+00    0.6     0.00018373     -5417.8322820349 -7.59E-06
   173 Broy./Diag. 0.10E+00    0.6     0.00010820     -5417.8322721328  9.90E-06
   174 Broy./Diag. 0.10E+00    0.6     0.00004443     -5417.8323036415 -3.15E-05
   175 Broy./Diag. 0.10E+00    0.6     0.00009215     -5417.8322731890  3.05E-05
   176 Broy./Diag. 0.10E+00    0.6     0.00022770     -5417.8322380421  3.51E-05
   177 Broy./Diag. 0.10E+00    0.6     0.00005035     -5417.8323128758 -7.48E-05
   178 Broy./Diag. 0.10E+00    0.6     0.00006129     -5417.8322783594  3.45E-05
   179 Broy./Diag. 0.10E+00    0.6     0.00012063     -5417.8322205139  5.78E-05
   180 Broy./Diag. 0.10E+00    0.6     0.00008244     -5417.8322775047 -5.70E-05
   181 Broy./Diag. 0.10E+00    0.6     0.00002381     -5417.8322470177  3.05E-05
   182 Broy./Diag. 0.10E+00    0.6     0.00004460     -5417.8322340501  1.30E-05
   183 Broy./Diag. 0.10E+00    0.6     0.00010991     -5417.8322677807 -3.37E-05
   184 Broy./Diag. 0.10E+00    0.6     0.00009803     -5417.8322406878  2.71E-05
   185 Broy./Diag. 0.10E+00    0.6     0.00006166     -5417.8322556918 -1.50E-05
   186 Broy./Diag. 0.10E+00    0.6     0.00028539     -5417.8322431781  1.25E-05
   187 Broy./Diag. 0.10E+00    0.6     0.00011948     -5417.8322562615 -1.31E-05
   188 Broy./Diag. 0.10E+00    0.6     0.00010185     -5417.8322279542  2.83E-05
   189 Broy./Diag. 0.10E+00    0.6     0.00021532     -5417.8322641194 -3.62E-05
   190 Broy./Diag. 0.10E+00    0.6     0.00004320     -5417.8322425914  2.15E-05
   191 Broy./Diag. 0.10E+00    0.6     0.00005555     -5417.8322358297  6.76E-06
   192 Broy./Diag. 0.10E+00    0.6     0.00008160     -5417.8321984746  3.74E-05
   193 Broy./Diag. 0.10E+00    0.6     0.00007918     -5417.8322086873 -1.02E-05
   194 Broy./Diag. 0.10E+00    0.6     0.00005662     -5417.8322454920 -3.68E-05
   195 Broy./Diag. 0.10E+00    0.6     0.00007893     -5417.8322426457  2.85E-06
   196 Broy./Diag. 0.10E+00    0.6     0.00015952     -5417.8322128272  2.98E-05
   197 Broy./Diag. 0.10E+00    0.6     0.00011821     -5417.8322184838 -5.66E-06
   198 Broy./Diag. 0.10E+00    0.6     0.00003953     -5417.8322493886 -3.09E-05
   199 Broy./Diag. 0.10E+00    0.6     0.00003309     -5417.8322516197 -2.23E-06
   200 Broy./Diag. 0.10E+00    0.6     0.00003891     -5417.8322634719 -1.19E-05
   201 Broy./Diag. 0.10E+00    0.6     0.00006064     -5417.8322709442 -7.47E-06
   202 Broy./Diag. 0.10E+00    0.6     0.00006330     -5417.8322624266  8.52E-06
   203 Broy./Diag. 0.10E+00    0.6     0.00008546     -5417.8322806920 -1.83E-05
   204 Broy./Diag. 0.10E+00    0.6     0.00010075     -5417.8322745132  6.18E-06
   205 Broy./Diag. 0.10E+00    0.6     0.00006271     -5417.8322437107  3.08E-05
   206 Broy./Diag. 0.10E+00    0.6     0.00003781     -5417.8322581689 -1.45E-05
   207 Broy./Diag. 0.10E+00    0.6     0.00012075     -5417.8322742006 -1.60E-05
   208 Broy./Diag. 0.10E+00    0.6     0.00005210     -5417.8322143297  5.99E-05
   209 Broy./Diag. 0.10E+00    0.6     0.00056852     -5417.8322229013 -8.57E-06
   210 Broy./Diag. 0.10E+00    0.6     0.00036540     -5417.8320436289  1.79E-04
   211 Broy./Diag. 0.10E+00    0.6     0.00040854     -5417.8320121188  3.15E-05
   212 Broy./Diag. 0.10E+00    0.6     0.00028938     -5417.8321924806 -1.80E-04
   213 Broy./Diag. 0.10E+00    0.6     0.00013765     -5417.8321499825  4.25E-05
   214 Broy./Diag. 0.10E+00    0.6     0.00004839     -5417.8321194625  3.05E-05
   215 Broy./Diag. 0.10E+00    0.6     0.00031650     -5417.8321347431 -1.53E-05
   216 Broy./Diag. 0.10E+00    0.6     0.00064074     -5417.8321501620 -1.54E-05
   217 Broy./Diag. 0.10E+00    0.6     0.00009571     -5417.8321147585  3.54E-05
   218 Broy./Diag. 0.10E+00    0.6     0.00014561     -5417.8321133885  1.37E-06
   219 Broy./Diag. 0.10E+00    0.6     0.00052491     -5417.8321291019 -1.57E-05
   220 Broy./Diag. 0.10E+00    0.6     0.00009143     -5417.8320785021  5.06E-05
   221 Broy./Diag. 0.10E+00    0.6     0.00052505     -5417.8320864410 -7.94E-06
   222 Broy./Diag. 0.10E+00    0.6     0.00024053     -5417.8320768987  9.54E-06
   223 Broy./Diag. 0.10E+00    0.6     0.00016434     -5417.8321372384 -6.03E-05
   224 Broy./Diag. 0.10E+00    0.6     0.00035718     -5417.8321198582  1.74E-05
   225 Broy./Diag. 0.10E+00    0.6     0.00046566     -5417.8321985263 -7.87E-05
   226 Broy./Diag. 0.10E+00    0.6     0.00033500     -5417.8322141501 -1.56E-05
   227 Broy./Diag. 0.10E+00    0.6     0.00024079     -5417.8322057434  8.41E-06
   228 Broy./Diag. 0.10E+00    0.7     0.00046585     -5417.8321959858  9.76E-06
   229 Broy./Diag. 0.10E+00    0.6     0.00072631     -5417.8322542612 -5.83E-05
   230 Broy./Diag. 0.10E+00    0.6     0.00055858     -5417.8321860812  6.82E-05
   231 Broy./Diag. 0.10E+00    0.6     0.00063334     -5417.8321519874  3.41E-05
   232 Broy./Diag. 0.10E+00    0.6     0.00008132     -5417.8321242218  2.78E-05
   233 Broy./Diag. 0.10E+00    0.6     0.00027521     -5417.8321361998 -1.20E-05
   234 Broy./Diag. 0.10E+00    0.6     0.00019710     -5417.8320652451  7.10E-05
   235 Broy./Diag. 0.10E+00    0.6     0.00031429     -5417.8320551122  1.01E-05
   236 Broy./Diag. 0.10E+00    0.6     0.00025803     -5417.8321083959 -5.33E-05
   237 Broy./Diag. 0.10E+00    0.6     0.00066051     -5417.8321098288 -1.43E-06
   238 Broy./Diag. 0.10E+00    0.6     0.00069884     -5417.8320542241  5.56E-05
   239 Broy./Diag. 0.10E+00    0.6     0.00033048     -5417.8322304100 -1.76E-04
   240 Broy./Diag. 0.10E+00    0.6     0.00045316     -5417.8322927731 -6.24E-05
   241 Broy./Diag. 0.10E+00    0.6     0.00088308     -5417.8324334428 -1.41E-04
   242 Broy./Diag. 0.10E+00    0.6     0.00031025     -5417.8323806964  5.27E-05
   243 Broy./Diag. 0.10E+00    0.6     0.00055760     -5417.8325152192 -1.35E-04
   244 Broy./Diag. 0.10E+00    0.6     0.00105319     -5417.8325044776  1.07E-05
   245 Broy./Diag. 0.10E+00    0.6     0.00029034     -5417.8324438196  6.07E-05
   246 Broy./Diag. 0.10E+00    0.6     0.00038678     -5417.8324700948 -2.63E-05
   247 Broy./Diag. 0.10E+00    0.6     0.00046763     -5417.8325244836 -5.44E-05
   248 Broy./Diag. 0.10E+00    0.6     0.00055894     -5417.8322684393  2.56E-04
   249 Broy./Diag. 0.10E+00    0.6     0.00030353     -5417.8322426957  2.57E-05
   250 Broy./Diag. 0.10E+00    0.6     0.00038146     -5417.8322438490 -1.15E-06
   251 Broy./Diag. 0.10E+00    0.6     0.00053281     -5417.8321984081  4.54E-05
   252 Broy./Diag. 0.10E+00    0.6     0.00081284     -5417.8322176735 -1.93E-05
   253 Broy./Diag. 0.10E+00    0.6     0.00152112     -5417.8323070928 -8.94E-05
   254 Broy./Diag. 0.10E+00    0.6     0.00036376     -5417.8321717967  1.35E-04
   255 Broy./Diag. 0.10E+00    0.6     0.00046261     -5417.8322606973 -8.89E-05
   256 Broy./Diag. 0.10E+00    0.6     0.00051307     -5417.8322747147 -1.40E-05
   257 Broy./Diag. 0.10E+00    0.6     0.00024905     -5417.8322102649  6.44E-05
   258 Broy./Diag. 0.10E+00    0.6     0.00025306     -5417.8321845684  2.57E-05
   259 Broy./Diag. 0.10E+00    0.6     0.00034830     -5417.8323488644 -1.64E-04
   260 Broy./Diag. 0.10E+00    0.6     0.00125569     -5417.8324404241 -9.16E-05
   261 Broy./Diag. 0.10E+00    0.6     0.00181897     -5417.8323713645  6.91E-05
   262 Broy./Diag. 0.10E+00    0.6     0.00017892     -5417.8323240293  4.73E-05
   263 Broy./Diag. 0.10E+00    0.6     0.00047760     -5417.8323853090 -6.13E-05
   264 Broy./Diag. 0.10E+00    0.6     0.00017446     -5417.8322174011  1.68E-04
   265 Broy./Diag. 0.10E+00    0.6     0.00020518     -5417.8322840892 -6.67E-05
   266 Broy./Diag. 0.10E+00    0.6     0.00077370     -5417.8323298775 -4.58E-05
   267 Broy./Diag. 0.10E+00    0.6     0.00042505     -5417.8322789723  5.09E-05
   268 Broy./Diag. 0.10E+00    0.6     0.00044746     -5417.8323284949 -4.95E-05
   269 Broy./Diag. 0.10E+00    0.6     0.00021944     -5417.8323373608 -8.87E-06
   270 Broy./Diag. 0.10E+00    0.6     0.00010216     -5417.8324224196 -8.51E-05
   271 Broy./Diag. 0.10E+00    0.6     0.00035596     -5417.8323685810  5.38E-05
   272 Broy./Diag. 0.10E+00    0.6     0.00063505     -5417.8325698714 -2.01E-04
   273 Broy./Diag. 0.10E+00    0.6     0.00059667     -5417.8328146622 -2.45E-04
   274 Broy./Diag. 0.10E+00    0.6     0.00074166     -5417.8322326509  5.82E-04
   275 Broy./Diag. 0.10E+00    0.6     0.00028244     -5417.8322564608 -2.38E-05
   276 Broy./Diag. 0.10E+00    0.6     0.00045274     -5417.8322014250  5.50E-05
   277 Broy./Diag. 0.10E+00    0.6     0.00126593     -5417.8323984867 -1.97E-04
   278 Broy./Diag. 0.10E+00    0.6     0.00085268     -5417.8323636852  3.48E-05
   279 Broy./Diag. 0.10E+00    0.6     0.00034039     -5417.8326791337 -3.15E-04
   280 Broy./Diag. 0.10E+00    0.6     0.00080324     -5417.8326987322 -1.96E-05
   281 Broy./Diag. 0.10E+00    0.6     0.00073535     -5417.8327414651 -4.27E-05
   282 Broy./Diag. 0.10E+00    0.6     0.00065473     -5417.8328099558 -6.85E-05
   283 Broy./Diag. 0.10E+00    0.6     0.00094771     -5417.8328148631 -4.91E-06
   284 Broy./Diag. 0.10E+00    0.6     0.00134604     -5417.8327615430  5.33E-05
   285 Broy./Diag. 0.10E+00    0.6     0.00085560     -5417.8328959086 -1.34E-04
   286 Broy./Diag. 0.10E+00    0.6     0.00120667     -5417.8328775783  1.83E-05
   287 Broy./Diag. 0.10E+00    0.6     0.00073186     -5417.8326754331  2.02E-04
   288 Broy./Diag. 0.10E+00    0.6     0.00029028     -5417.8325540716  1.21E-04
[...]
      17     Ni       1         9.476769     8.573366    -0.050135     0.903404
      18     Ni       1         9.397148     8.606561    -0.003709     0.790587
      19     Ni       1         9.441793     8.503432     0.054776     0.938361
      20     Ni       1         9.375631     8.809952    -0.185583     0.565678
      21     Ni       1         9.537284     8.341271     0.121445     1.196013
      22     Ni       1         9.410311     8.656739    -0.067050     0.753572
      23     Ni       1         9.573433     8.219372     0.207195     1.354061
      24     Ni       1         9.547713     8.430656     0.021631     1.117056
      25     Ni       1         9.526945     8.416894     0.056161     1.110051
      26     Ni       1         9.545428     8.367350     0.087222     1.178078
      27     Ni       1         9.270248     8.863489    -0.133737     0.406759
      28     Ni       1         9.440102     8.597300    -0.037403     0.842802
      29     Ni       1         9.595624     8.056239     0.348137     1.539384
      30     Ni       1         9.373806     8.674494    -0.048300     0.699312
      31     Ni       1         9.388046     8.719147    -0.107192     0.668899
      32     Ni       1         9.557011     8.343891     0.099098     1.213119
 # Total charge and spin      297.506896   278.493104     0.000000    19.013792

 !-----------------------------------------------------------------------------!

 !-----------------------------------------------------------------------------!
                           Hirshfeld Charges

  #Atom  Element  Kind  Ref Charge     Population       Spin moment  Net charge
      1       Ni     1      18.000    9.291   8.858            0.433     -0.149
      2       Ni     1      18.000    9.010   9.122           -0.111     -0.132
      3       Ni     1      18.000    9.116   9.013            0.103     -0.129
      4       Ni     1      18.000    8.775   9.256           -0.481     -0.031
      5       Ni     1      18.000    8.965   8.942            0.024      0.093
      6       Ni     1      18.000    8.883   9.151           -0.267     -0.034
      7       Ni     1      18.000    9.573   8.278            1.294      0.149
      8       Ni     1      18.000    9.224   8.878            0.346     -0.102
      9       Ni     1      18.000    9.022   9.080           -0.058     -0.102
     10       Ni     1      18.000    9.499   8.433            1.066      0.068
     11       Ni     1      18.000    8.729   9.224           -0.495      0.047
     12       Ni     1      18.000    9.347   8.696            0.651     -0.043
     13       Ni     1      18.000    8.720   9.127           -0.407      0.152
     14       Ni     1      18.000    9.045   9.030            0.014     -0.075
     15       Ni     1      18.000    9.267   8.858            0.409     -0.124
     16       Ni     1      18.000    9.529   8.403            1.127      0.068
     17       Ni     1      18.000    9.471   8.574            0.897     -0.045
     18       Ni     1      18.000    9.400   8.604            0.796     -0.004
     19       Ni     1      18.000    9.450   8.501            0.949      0.050
     20       Ni     1      18.000    9.377   8.803            0.574     -0.180
     21       Ni     1      18.000    9.544   8.335            1.209      0.121
     22       Ni     1      18.000    9.413   8.646            0.767     -0.059
     23       Ni     1      18.000    9.584   8.221            1.363      0.195
     24       Ni     1      18.000    9.556   8.424            1.132      0.019
     25       Ni     1      18.000    9.537   8.413            1.124      0.050
     26       Ni     1      18.000    9.554   8.366            1.188      0.079
     27       Ni     1      18.000    9.264   8.864            0.400     -0.128
     28       Ni     1      18.000    9.437   8.596            0.842     -0.033
     29       Ni     1      18.000    9.617   8.055            1.562      0.327
     30       Ni     1      18.000    9.367   8.675            0.692     -0.042
     31       Ni     1      18.000    9.380   8.723            0.658     -0.103
     32       Ni     1      18.000    9.560   8.342            1.217      0.098

  Total Charge                                                           -0.000
 !-----------------------------------------------------------------------------!

 ENERGY| Total FORCE_EVAL ( QS ) energy [a.u.]:            -5418.373030737715453

 -------------------------------------------------------------------------------
 -                                                                             -
 -                                DBCSR STATISTICS                             -
 -                                                                             -
 -------------------------------------------------------------------------------
 COUNTER                                    TOTAL       BLAS       SMM       ACC
 flops    26 x    26 x    32         137060352000       0.0%    100.0%      0.0%
 flops    26 x    26 x    64         456867840000       0.0%    100.0%      0.0%
 flops inhomo. stacks                           0       0.0%      0.0%      0.0%
 flops total                       593.928192E+09       0.0%    100.0%      0.0%
 flops max/rank                      7.874048E+09       0.0%    100.0%      0.0%
 matmuls inhomo. stacks                         0       0.0%      0.0%      0.0%
 matmuls total                            8448000       0.0%    100.0%      0.0%
 number of processed stacks               2048000       0.0%    100.0%      0.0%
 average stack size                                     0.0       4.1       0.0
 marketing flops                   422.138708E+09
 -------------------------------------------------------------------------------
 # multiplications                           1000
 max memory usage/rank             232.558592E+06
 # max total images/rank                        2
 # max 3D layers                                1
 # MPI messages exchanged                 3712000
 MPI messages size (bytes):
  total size                       121.831424E+09
  min size                          13.312000E+03
  max size                          53.248000E+03
  average size                      32.820965E+03
 MPI breakdown and total messages size (bytes):
             size <=      128                   0                        0
       128 < size <=     8192                   0                        0
      8192 < size <=    32768             2512000              57933824000
     32768 < size <=   131072             1200000              63897600000
    131072 < size <=  4194304                   0                        0
   4194304 < size <= 16777216                   0                        0
  16777216 < size                               0                        0
 -------------------------------------------------------------------------------

 *** WARNING in dbcsr_mm.F:290 :: Using a non-square number of MPI ranks ***
 *** might lead to poor performance. Used ranks: 128 Suggested: 121 256  ***

 -------------------------------------------------------------------------------
 -                                                                             -
 -                      DBCSR MESSAGE PASSING PERFORMANCE                      -
 -                                                                             -
 -------------------------------------------------------------------------------
 ROUTINE             CALLS      AVE VOLUME [Bytes]
 MP_Bcast                3                     12.
 MP_Allreduce         7025                      8.
 MP_Alltoall         28012                  57203.
 MP_ISend            64000                  15890.
 MP_IRecv            64000                  15058.
 -------------------------------------------------------------------------------

 -------------------------------------------------------------------------------
 -                                                                             -
 -                                DBM STATISTICS                               -
 -                                                                             -
 -------------------------------------------------------------------------------
    M  x    N  x    K                                          COUNT     PERCENT
 -------------------------------------------------------------------------------

 -------------------------------------------------------------------------------
 -                                                                             -
 -                                GRID STATISTICS                              -
 -                                                                             -
 -------------------------------------------------------------------------------
 LP    KERNEL             BACKEND                              COUNT     PERCENT
 6     collocate ortho    REF                               77210112      50.02%
 6     integrate ortho    REF                               77056000      49.92%
 0     integrate general  REF                                  65536       0.04%
 0     collocate general  REF                                  36864       0.02%
 -------------------------------------------------------------------------------

 MEMORY| Estimated peak process memory [MiB]                                 224

 -------------------------------------------------------------------------------
 ----                             MULTIGRID INFO                            ----
 -------------------------------------------------------------------------------
 count for grid        1:         969696          cutoff [a.u.]          300.00
 count for grid        2:         304320          cutoff [a.u.]          100.00
 count for grid        3:         238080          cutoff [a.u.]           33.33
 count for grid        4:          65120          cutoff [a.u.]           11.11
 count for grid        5:           5120          cutoff [a.u.]            3.70
 total gridlevel count  :        1582336

 -------------------------------------------------------------------------------
 -                                                                             -
 -                         MESSAGE PASSING PERFORMANCE                         -
 -                                                                             -
 -------------------------------------------------------------------------------

 ROUTINE             CALLS      AVE VOLUME [Bytes]
 MP_Group                5
 MP_Bcast             2531                  75221.
 MP_Allreduce        12899                     95.
 MP_Sync             18021
 MP_Alltoall         33034               27070080.
 MP_SendRecv        509016                   5208.
 MP_ISendRecv       508000                   5208.
 MP_Wait            606262
 MP_comm_split        1000
 MP_ISend           206212                  38670.
 MP_IRecv           206456                  38627.
 MP_Recv              1250                 212992.
 MP_Write_All            2                  19908.
 -------------------------------------------------------------------------------


 -------------------------------------------------------------------------------
 -                                                                             -
 -                           R E F E R E N C E S                               -
 -                                                                             -
 -------------------------------------------------------------------------------
 
 CP2K version 2023.1, the CP2K developers group (2023).
 CP2K is freely available from https://www.cp2k.org/ .

 Kuehne,Thomas D.; Iannuzzi,Marcella; Del Ben,Mauro;
 Rybkin,Vladimir V.; Seewald,Patrick; Stein,Frederick; Laino,Teodoro;
 Khaliullin,Rustam Z.; Schuett,Ole; Schiffmann,Florian; Golze,Dorothea;
 Wilhelm,Jan; Chulkov,Sergey; Bani-Hashemian,Mohammad Hossein;
 Weber,Valery; Borstnik,Urban; Taillefumier,Mathieu;
 Jakobovits,Alice Shoshana; Lazzaro,Alfio; Pabst,Hans; Mueller,Tiziano;
 Schade,Robert; Guidon,Manuel; Andermatt,Samuel; Holmberg,Nico;
 Schenter,Gregory K.; Hehn,Anna; Bussy,Augustin; Belleflamme,Fabian;
 Tabacchi,Gloria; Gloess,Andreas; Lass,Michael; Bethune,Iain;
 Mundy,Christopher J.; Plessl,Christian; Watkins,Matt;
 VandeVondele,Joost; Krack,Matthias; Hutter,Juerg. 
 The Journal of Chemical Physics, 152 (19), (2020). 
 CP2K: An electronic structure and molecular dynamics software package -
 Quickstep: Efficient and accurate electronic structure calculations.
 https://doi.org/10.1063/5.0007045

 Schuett, Ole; Messmer, Peter; Hutter, Juerg; VandeVondele, Joost. 
 Electronic Structure Calculations on Graphics Processing Units, John
 Wiley & Sons, Ltd, 173-190 (2016). 
 GPU-Accelerated Sparse Matrix-Matrix Multiplication for
 Linear Scaling Density Functional Theory.
 https://doi.org/10.1002/9781118670712.ch8

 Heinecke, A; Henry, G; Hutchinson, M; Pabst, H. 
 Proceedings of Intl. Supercomputing Conference, 981-991 (2016). 
 LIBXSMM: Accelerating Small Matrix Multiplications
 by Runtime Code Generation.
 https://doi.org/10.1109/SC.2016.83

 Borstnik, U; VandeVondele, J; Weber, V; Hutter, J. 
 PARALLEL COMPUTING, 40 (5-6), 47-58 (2014). 
 Sparse matrix multiplication: The distributed block-compressed sparse
 row library.
 https://doi.org/10.1016/j.parco.2014.03.012

 Hutter, J; Iannuzzi, M; Schiffmann, F; VandeVondele, J. 
 WIREs Comput Mol Sci., 4 (1), 15-25 (2014). 
 CP2K: atomistic simulations of condensed matter systems.
 https://doi.org/10.1002/wcms.1159

 Marek, A; Blum, V; Johanni, R; Havu, V; Lang, B; Auckenthaler, T;
 Heinecke, A; Bungartz, H; Lederer, H. 
 Journal of Physics: Condensed Matter, 26 (21), (2014). 
 The ELPA library: scalable parallel eigenvalue solutions for
 electronic structure
 theory and computational science.
 https://doi.org/10.1088/0953-8984/26/21/213201

 VandeVondele, J; Hutter, J. 
 JOURNAL OF CHEMICAL PHYSICS, 127 (11), 114105 (2007). 
 Gaussian basis sets for accurate calculations on molecular systems in
 gas and condensed phases.
 https://doi.org/10.1063/1.2770708

 Krack, M. 
 THEORETICAL CHEMISTRY ACCOUNTS, 114 (1-3), 145-152 (2005). 
 Pseudopotentials for H to Kr optimized for gradient-corrected
 exchange-correlation functionals.
 https://doi.org/10.1007/s00214-005-0655-y

 VandeVondele, J; Krack, M; Mohamed, F; Parrinello, M; Chassaing, T;
 Hutter, J. COMPUTER PHYSICS COMMUNICATIONS, 167 (2), 103-128 (2005). 
 QUICKSTEP: Fast and accurate density functional calculations using a
 mixed Gaussian and plane waves approach.
 https://doi.org/10.1016/j.cpc.2004.12.014

 Frigo, M; Johnson, SG. 
 PROCEEDINGS OF THE IEEE, 93 (2), 216-231 (2005). 
 The design and implementation of FFTW3.
 https://doi.org/10.1109/JPROC.2004.840301

 Hartwigsen, C; Goedecker, S; Hutter, J. 
 PHYSICAL REVIEW B, 58 (7), 3641-3662 (1998). 
 Relativistic separable dual-space Gaussian pseudopotentials from H to Rn.
 https://doi.org/10.1103/PhysRevB.58.3641

 Lippert, G; Hutter, J; Parrinello, M. 
 MOLECULAR PHYSICS, 92 (3), 477-487 (1997). 
 A hybrid Gaussian and plane wave density functional scheme.
 https://doi.org/10.1080/002689797170220

 Perdew, JP; Burke, K; Ernzerhof, M. 
 PHYSICAL REVIEW LETTERS, 77 (18), 3865-3868 (1996). 
 Generalized gradient approximation made simple.
 https://doi.org/10.1103/PhysRevLett.77.3865

 Goedecker, S; Teter, M; Hutter, J. 
 PHYSICAL REVIEW B, 54 (3), 1703-1710 (1996). 
 Separable dual-space Gaussian pseudopotentials.
 https://doi.org/10.1103/PhysRevB.54.1703


 -------------------------------------------------------------------------------
 -                                                                             -
 -                                T I M I N G                                  -
 -                                                                             -
 -------------------------------------------------------------------------------
 SUBROUTINE                       CALLS  ASD         SELF TIME        TOTAL TIME
                                MAXIMUM       AVERAGE  MAXIMUM  AVERAGE  MAXIMUM
 CP2K                                 1  1.0    0.110    0.111  296.259  296.261
 qs_energies                          1  2.0    0.001    0.002  295.660  295.661
 scf_env_do_scf                       1  3.0    0.001    0.003  294.430  294.436
 scf_env_do_scf_inner_loop          500  4.0    0.021    0.042  294.428  294.434
 qs_ks_update_qs_env                500  5.0    0.006    0.008  102.173  102.232
 rebuild_ks_matrix                  500  6.0    0.003    0.004  102.116  102.175
 qs_ks_build_kohn_sham_matrix       500  7.0    0.074    0.110  102.113  102.172
 qs_scf_new_mos                     500  5.0    0.009    0.012   96.277   96.425
 qs_rho_update_rho_low              501  5.0    0.004    0.005   89.550   89.573
 calculate_rho_elec                1002  6.0    0.078    0.087   89.546   89.569
 eigensolver                       1000  6.0    0.094    0.134   88.158   88.210
 sum_up_and_integrate               500  8.0    0.069    0.128   85.999   86.066
 integrate_v_rspace                1000  9.0    0.027    0.039   85.925   86.005
 cp_fm_diag_elpa                   1000  7.0    0.004    0.009   78.860   78.998
 cp_fm_redistribute_end            1000  8.0   68.116   78.026   68.368   78.037
 cp_fm_diag_elpa_base              1000  8.0    9.467   75.880    9.610   76.909
 grid_collocate_task_list          1002  7.0   68.791   72.162   68.791   72.162
 grid_integrate_task_list          1000 10.0   61.562   64.443   61.562   64.443
 rs_pw_transfer                   10014  9.5    0.119    0.172   31.146   33.234
 density_rs2pw                     1002  7.0    0.040    0.046   19.772   21.852
 pw_transfer                      20511 10.0    2.511    2.715   20.892   21.683
 potential_pw2rs                   1000 10.0    0.038    0.045   20.734   20.908
 fft_wrap_pw1pw2                  19511 11.1    0.084    0.099   18.345   19.446
 fft_wrap_pw1pw2_300              11503 12.4    0.398    0.470   15.127   15.731
 qs_vxc_create                      500  8.0    0.007    0.008   14.796   14.841
 xc_vxc_pw_create                   500  9.0    0.133    0.149   14.789   14.835
 fft3d_pb                         11503 13.4    3.563    3.918   12.796   13.686
 mp_waitany                       64192 11.5    9.699   12.436    9.699   12.436
 rs_pw_transfer_PW2RS_300          1002 12.0    4.046    4.799   11.758   12.206
 rs_pw_transfer_RS2PW_300          1004  9.0    2.988    3.918    9.185   11.257
 xc_rho_set_and_dset_create         500 10.0    0.145    0.167    9.010    9.510
 mp_alltoall_z22v                 31014 15.2    7.944    9.487    7.944    9.487
 cp_fm_cholesky_restore            3000  7.0    8.924    9.167    8.924    9.167
 xc_pw_derive                      6000 11.0    0.016    0.020    8.162    8.875
 mp_alltoall_d11v                 14008  9.3    4.650    6.691    4.650    6.691
 xc_pw_divergence                  1000 10.0    0.008    0.010    5.506    6.306
 -------------------------------------------------------------------------------

 The number of warnings for this run is : 4
 
 -------------------------------------------------------------------------------
  **** **** ******  **  PROGRAM ENDED AT                 2023-02-06 16:48:17.447
 ***** ** ***  *** **   PROGRAM RAN ON                                 nid006261
 **    ****   ******    PROGRAM RAN BY                                    cahart
 ***** **    ** ** **   PROGRAM PROCESS ID                                100059
  **** **  *******  **  PROGRAM STOPPED IN /mnt/lustre/a2fs-work2/work/e05/e05/c
                                           ahart/postdoc/masters/ni/archer2/bulk
                                           /optimise/multiplicity-65-magnetizati
                                           on/search/1.0E-1_1.0E-3
