 DBCSR| CPU Multiplication driver                                           XSMM
 DBCSR| Multrec recursion limit                                              512
 DBCSR| Multiplication stack size                                           1000
 DBCSR| Maximum elements for images                                    UNLIMITED
 DBCSR| Multiplicative factor virtual images                                   1
 DBCSR| Use multiplication densification                                       T
 DBCSR| Multiplication size stacks                                             3
 DBCSR| Number of 3D layers                                               SINGLE
 DBCSR| Use MPI memory allocation                                              T
 DBCSR| Use RMA algorithm                                                      F
 DBCSR| Use Communication thread                                               T
 DBCSR| Communication thread load                                             87


  **** **** ******  **  PROGRAM STARTED AT               2022-11-28 16:54:07.947
 ***** ** ***  *** **   PROGRAM STARTED ON                         node-c12f-002
 **    ****   ******    PROGRAM STARTED BY                               mmm1169
 ***** **    ** ** **   PROGRAM PROCESS ID                                 34040
  **** **  *******  **  PROGRAM STARTED IN /lustre/scratch/mmm1169/work/other/cp
                                           2k_forum/ni_bulk/final/slab/multiplic
                                           ity-25/optimise-alpha-scf-1e-3-rs-1e-
                                           4-1e-5/folder_1E-4

 CP2K| version string:                                          CP2K version 7.1
 CP2K| source code revision number:                                  git:e635599
 CP2K| cp2kflags: libint fftw3 libxc elpa parallel mpi3 scalapack quip xsmm spgl
 CP2K|            ib
 CP2K| is freely available from                            https://www.cp2k.org/
 CP2K| Program compiled at                          Wed  8 Jan 12:34:35 GMT 2020
 CP2K| Program compiled on                                               login01
 CP2K| Program compiled for                                                local
 CP2K| Data directory path     /shared/ucl/apps/cp2k/7.1/gnu-4.9.2/cp2k-7.1/data
 CP2K| Input file name                                                 input.inp

 GLOBAL| Force Environment number                                              1
 GLOBAL| Basis set file name                                        BASIS_MOLOPT
 GLOBAL| Potential file name                                      GTH_POTENTIALS
 GLOBAL| MM Potential file name                                     MM_POTENTIAL
 GLOBAL| Coordinate file name                                      __STD_INPUT__
 GLOBAL| Method name                                                        CP2K
 GLOBAL| Project name                                                    Ni_bulk
 GLOBAL| Preferred FFT library                                             FFTW3
 GLOBAL| Preferred diagonalization lib.                                     ELPA
 GLOBAL| Run type                                                         ENERGY
 GLOBAL| All-to-all communication in single precision                          F
 GLOBAL| FFTs using library dependent lengths                                  F
 GLOBAL| Global print level                                               MEDIUM
 GLOBAL| MPI I/O enabled                                                       T
 GLOBAL| Total number of message passing processes                            20
 GLOBAL| Number of threads for this process                                    1
 GLOBAL| This output is from process                                           0
 GLOBAL| CPU model name                 Intel(R) Xeon(R) Gold 6248 CPU @ 2.50GHz
 GLOBAL| CPUID                                                              1003

 MEMORY| system memory details [Kb]
 MEMORY|                        rank 0           min           max       average
 MEMORY| MemTotal            197730148     197730148     197730148     197730148
 MEMORY| MemFree             178789732     178789732     178789732     178789732
 MEMORY| Buffers                     0             0             0             0
 MEMORY| Cached               11889784      11889784      11889784      11889784
 MEMORY| Slab                   947916        947916        947916        947916
 MEMORY| SReclaimable           227108        227108        227108        227108
 MEMORY| MemLikelyFree       190906624     190906624     190906624     190906624


 *** Fundamental physical constants (SI units) ***

 *** Literature: B. J. Mohr and B. N. Taylor,
 ***             CODATA recommended values of the fundamental physical
 ***             constants: 2006, Web Version 5.1
 ***             http://physics.nist.gov/constants

 Speed of light in vacuum [m/s]                             2.99792458000000E+08
 Magnetic constant or permeability of vacuum [N/A**2]       1.25663706143592E-06
 Electric constant or permittivity of vacuum [F/m]          8.85418781762039E-12
 Planck constant (h) [J*s]                                  6.62606896000000E-34
 Planck constant (h-bar) [J*s]                              1.05457162825177E-34
 Elementary charge [C]                                      1.60217648700000E-19
 Electron mass [kg]                                         9.10938215000000E-31
 Electron g factor [ ]                                     -2.00231930436220E+00
 Proton mass [kg]                                           1.67262163700000E-27
 Fine-structure constant                                    7.29735253760000E-03
 Rydberg constant [1/m]                                     1.09737315685270E+07
 Avogadro constant [1/mol]                                  6.02214179000000E+23
 Boltzmann constant [J/K]                                   1.38065040000000E-23
 Atomic mass unit [kg]                                      1.66053878200000E-27
 Bohr radius [m]                                            5.29177208590000E-11

 *** Conversion factors ***

 [u] -> [a.u.]                                              1.82288848426455E+03
 [Angstrom] -> [Bohr] = [a.u.]                              1.88972613288564E+00
 [a.u.] = [Bohr] -> [Angstrom]                              5.29177208590000E-01
 [a.u.] -> [s]                                              2.41888432650478E-17
 [a.u.] -> [fs]                                             2.41888432650478E-02
 [a.u.] -> [J]                                              4.35974393937059E-18
 [a.u.] -> [N]                                              8.23872205491840E-08
 [a.u.] -> [K]                                              3.15774647902944E+05
 [a.u.] -> [kJ/mol]                                         2.62549961709828E+03
 [a.u.] -> [kcal/mol]                                       6.27509468713739E+02
 [a.u.] -> [Pa]                                             2.94210107994716E+13
 [a.u.] -> [bar]                                            2.94210107994716E+08
 [a.u.] -> [atm]                                            2.90362800883016E+08
 [a.u.] -> [eV]                                             2.72113838565563E+01
 [a.u.] -> [Hz]                                             6.57968392072181E+15
 [a.u.] -> [1/cm] (wave numbers)                            2.19474631370540E+05
 [a.u./Bohr**2] -> [1/cm]                                   5.14048714338585E+03
 

 CELL_TOP| Volume [angstrom^3]:                                          983.250
 CELL_TOP| Vector a [angstrom     7.012     0.000     0.000    |a| =       7.012
 CELL_TOP| Vector b [angstrom     0.000     7.012     0.000    |b| =       7.012
 CELL_TOP| Vector c [angstrom     0.000     0.000    20.000    |c| =      20.000
 CELL_TOP| Angle (b,c), alpha [degree]:                                   90.000
 CELL_TOP| Angle (a,c), beta  [degree]:                                   90.000
 CELL_TOP| Angle (a,b), gamma [degree]:                                   90.000
 CELL_TOP| Numerically orthorhombic:                                         YES

 GENERATE|  Preliminary Number of Bonds generated:                             0
 GENERATE|  Achieved consistency in connectivity generation.

 CELL| Volume [angstrom^3]:                                              983.250
 CELL| Vector a [angstrom]:       7.012     0.000     0.000    |a| =       7.012
 CELL| Vector b [angstrom]:       0.000     7.012     0.000    |b| =       7.012
 CELL| Vector c [angstrom]:       0.000     0.000    20.000    |c| =      20.000
 CELL| Angle (b,c), alpha [degree]:                                       90.000
 CELL| Angle (a,c), beta  [degree]:                                       90.000
 CELL| Angle (a,b), gamma [degree]:                                       90.000
 CELL| Numerically orthorhombic:                                             YES

 CELL_REF| Volume [angstrom^3]:                                          983.250
 CELL_REF| Vector a [angstrom     7.012     0.000     0.000    |a| =       7.012
 CELL_REF| Vector b [angstrom     0.000     7.012     0.000    |b| =       7.012
 CELL_REF| Vector c [angstrom     0.000     0.000    20.000    |c| =      20.000
 CELL_REF| Angle (b,c), alpha [degree]:                                   90.000
 CELL_REF| Angle (a,c), beta  [degree]:                                   90.000
 CELL_REF| Angle (a,b), gamma [degree]:                                   90.000
 CELL_REF| Numerically orthorhombic:                                         YES

 *******************************************************************************
 *******************************************************************************
 **                                                                           **
 **     #####                         ##              ##                      **
 **    ##   ##            ##          ##              ##                      **
 **   ##     ##                       ##            ######                    **
 **   ##     ##  ##   ##  ##   #####  ##  ##   ####   ##    #####    #####    **
 **   ##     ##  ##   ##  ##  ##      ## ##   ##      ##   ##   ##  ##   ##   **
 **   ##  ## ##  ##   ##  ##  ##      ####     ###    ##   ######   ######    **
 **    ##  ###   ##   ##  ##  ##      ## ##      ##   ##   ##       ##        **
 **     #######   #####   ##   #####  ##  ##  ####    ##    #####   ##        **
 **           ##                                                    ##        **
 **                                                                           **
 **                                                ... make the atoms dance   **
 **                                                                           **
 **            Copyright (C) by CP2K developers group (2000 - 2019)           **
 **                                                                           **
 *******************************************************************************

 *** WARNING in qs_environment.F:1296 :: More added MOs requested for beta ***
 *** spin than available.                                                  ***


 *** WARNING in qs_environment.F:1310 :: More added MOs requested than ***
 *** available. The full set of unoccupied MOs will be used.           ***


 DFT| Spin unrestricted (spin-polarized) Kohn-Sham calculation               UKS
 DFT| Multiplicity                                                            25
 DFT| Number of spin states                                                    2
 DFT| Charge                                                                   0
 DFT| Self-interaction correction (SIC)                                       NO
 DFT| Cutoffs: density                                              1.000000E-10
 DFT|          gradient                                             1.000000E-10
 DFT|          tau                                                  1.000000E-10
 DFT|          cutoff_smoothing_range                               0.000000E+00
 DFT| XC density smoothing                                                  NONE
 DFT| XC derivatives                                                          PW
 FUNCTIONAL| ROUTINE=NEW
 FUNCTIONAL| PBE:
 FUNCTIONAL| J.P.Perdew, K.Burke, M.Ernzerhof, Phys. Rev. Letter, vol. 77, n 18,
 FUNCTIONAL|  pp. 3865-3868, (1996){spin polarized}                             

 QS| Method:                                                                 GPW
 QS| Density plane wave grid type                        NON-SPHERICAL FULLSPACE
 QS| Number of grid levels:                                                    5
 QS| Density cutoff [a.u.]:                                                300.0
 QS| Multi grid cutoff [a.u.]: 1) grid level                               300.0
 QS|                           2) grid level                               100.0
 QS|                           3) grid level                                33.3
 QS|                           4) grid level                                11.1
 QS|                           5) grid level                                 3.7
 QS| Grid level progression factor:                                          3.0
 QS| Relative density cutoff [a.u.]:                                        30.0
 QS| Consistent realspace mapping and integration 
 QS| Interaction thresholds: eps_pgf_orb:                                1.0E-06
 QS|                         eps_filter_matrix:                          0.0E+00
 QS|                         eps_core_charge:                            1.0E-14
 QS|                         eps_rho_gspace:                             1.0E-12
 QS|                         eps_rho_rspace:                             1.0E-12
 QS|                         eps_gvg_rspace:                             1.0E-06
 QS|                         eps_ppl:                                    1.0E-02
 QS|                         eps_ppnl:                                   1.0E-08


 ATOMIC KIND INFORMATION

  1. Atomic kind: Ni_i                                  Number of atoms:      16

     Orbital Basis Set                                        DZVP-MOLOPT-SR-GTH

       Number of orbital shell sets:                                           1
       Number of orbital shells:                                               8
       Number of primitive Cartesian functions:                                6
       Number of Cartesian basis functions:                                   31
       Number of spherical basis functions:                                   26
       Norm type:                                                              2

       Normalised Cartesian orbitals:

                        Set   Shell   Orbital            Exponent    Coefficient

                          1       1    2s               10.077428      -0.684558
                                                         5.847736      -0.844524
                                                         2.494033       1.088856
                                                         0.988355       0.395503
                                                         0.344978       0.010224
                                                         0.099466      -0.003250

                          1       2    3s               10.077428       0.096747
                                                         5.847736       0.162504
                                                         2.494033      -0.297192
                                                         0.988355      -0.319752
                                                         0.344978       0.088318
                                                         0.099466       0.118587

                          1       3    4s               10.077428       0.036437
                                                         5.847736      -0.381480
                                                         2.494033       0.003759
                                                         0.988355      -1.048256
                                                         0.344978       0.855825
                                                         0.099466      -0.176350

                          1       4    3px              10.077428      -3.133913
                                                         5.847736       3.027656
                                                         2.494033       2.353227
                                                         0.988355       0.554184
                                                         0.344978       0.019462
                                                         0.099466      -0.000291
                          1       4    3py              10.077428      -3.133913
                                                         5.847736       3.027656
                                                         2.494033       2.353227
                                                         0.988355       0.554184
                                                         0.344978       0.019462
                                                         0.099466      -0.000291
                          1       4    3pz              10.077428      -3.133913
                                                         5.847736       3.027656
                                                         2.494033       2.353227
                                                         0.988355       0.554184
                                                         0.344978       0.019462
                                                         0.099466      -0.000291

                          1       5    4px              10.077428      -0.112729
                                                         5.847736      -0.114008
                                                         2.494033      -0.347303
                                                         0.988355      -0.110323
                                                         0.344978       0.154096
                                                         0.099466       0.058386
                          1       5    4py              10.077428      -0.112729
                                                         5.847736      -0.114008
                                                         2.494033      -0.347303
                                                         0.988355      -0.110323
                                                         0.344978       0.154096
                                                         0.099466       0.058386
                          1       5    4pz              10.077428      -0.112729
                                                         5.847736      -0.114008
                                                         2.494033      -0.347303
                                                         0.988355      -0.110323
                                                         0.344978       0.154096
                                                         0.099466       0.058386

                          1       6    4dx2             10.077428       8.232726
                                                         5.847736       9.105758
                                                         2.494033       2.849835
                                                         0.988355       0.554319
                                                         0.344978       0.067245
                                                         0.099466       0.001940
                          1       6    4dxy             10.077428      14.259500
                                                         5.847736      15.771636
                                                         2.494033       4.936060
                                                         0.988355       0.960109
                                                         0.344978       0.116472
                                                         0.099466       0.003360
                          1       6    4dxz             10.077428      14.259500
                                                         5.847736      15.771636
                                                         2.494033       4.936060
                                                         0.988355       0.960109
                                                         0.344978       0.116472
                                                         0.099466       0.003360
                          1       6    4dy2             10.077428       8.232726
                                                         5.847736       9.105758
                                                         2.494033       2.849835
                                                         0.988355       0.554319
                                                         0.344978       0.067245
                                                         0.099466       0.001940
                          1       6    4dyz             10.077428      14.259500
                                                         5.847736      15.771636
                                                         2.494033       4.936060
                                                         0.988355       0.960109
                                                         0.344978       0.116472
                                                         0.099466       0.003360
                          1       6    4dz2             10.077428       8.232726
                                                         5.847736       9.105758
                                                         2.494033       2.849835
                                                         0.988355       0.554319
                                                         0.344978       0.067245
                                                         0.099466       0.001940

                          1       7    5dx2             10.077428      -2.715373
                                                         5.847736      -4.020640
                                                         2.494033      -1.397569
                                                         0.988355      -0.076143
                                                         0.344978       0.033435
                                                         0.099466       0.026032
                          1       7    5dxy             10.077428      -4.703164
                                                         5.847736      -6.963952
                                                         2.494033      -2.420661
                                                         0.988355      -0.131883
                                                         0.344978       0.057911
                                                         0.099466       0.045088
                          1       7    5dxz             10.077428      -4.703164
                                                         5.847736      -6.963952
                                                         2.494033      -2.420661
                                                         0.988355      -0.131883
                                                         0.344978       0.057911
                                                         0.099466       0.045088
                          1       7    5dy2             10.077428      -2.715373
                                                         5.847736      -4.020640
                                                         2.494033      -1.397569
                                                         0.988355      -0.076143
                                                         0.344978       0.033435
                                                         0.099466       0.026032
                          1       7    5dyz             10.077428      -4.703164
                                                         5.847736      -6.963952
                                                         2.494033      -2.420661
                                                         0.988355      -0.131883
                                                         0.344978       0.057911
                                                         0.099466       0.045088
                          1       7    5dz2             10.077428      -2.715373
                                                         5.847736      -4.020640
                                                         2.494033      -1.397569
                                                         0.988355      -0.076143
                                                         0.344978       0.033435
                                                         0.099466       0.026032

                          1       8    5fx3             10.077428      -0.467694
                                                         5.847736       0.618100
                                                         2.494033       0.066069
                                                         0.988355       0.262898
                                                         0.344978       0.004720
                                                         0.099466       0.007748
                          1       8    5fx2y            10.077428      -1.045795
                                                         5.847736       1.382114
                                                         2.494033       0.147734
                                                         0.988355       0.587859
                                                         0.344978       0.010555
                                                         0.099466       0.017325
                          1       8    5fx2z            10.077428      -1.045795
                                                         5.847736       1.382114
                                                         2.494033       0.147734
                                                         0.988355       0.587859
                                                         0.344978       0.010555
                                                         0.099466       0.017325
                          1       8    5fxy2            10.077428      -1.045795
                                                         5.847736       1.382114
                                                         2.494033       0.147734
                                                         0.988355       0.587859
                                                         0.344978       0.010555
                                                         0.099466       0.017325
                          1       8    5fxyz            10.077428      -1.811371
                                                         5.847736       2.393892
                                                         2.494033       0.255883
                                                         0.988355       1.018201
                                                         0.344978       0.018282
                                                         0.099466       0.030008
                          1       8    5fxz2            10.077428      -1.045795
                                                         5.847736       1.382114
                                                         2.494033       0.147734
                                                         0.988355       0.587859
                                                         0.344978       0.010555
                                                         0.099466       0.017325
                          1       8    5fy3             10.077428      -0.467694
                                                         5.847736       0.618100
                                                         2.494033       0.066069
                                                         0.988355       0.262898
                                                         0.344978       0.004720
                                                         0.099466       0.007748
                          1       8    5fy2z            10.077428      -1.045795
                                                         5.847736       1.382114
                                                         2.494033       0.147734
                                                         0.988355       0.587859
                                                         0.344978       0.010555
                                                         0.099466       0.017325
                          1       8    5fyz2            10.077428      -1.045795
                                                         5.847736       1.382114
                                                         2.494033       0.147734
                                                         0.988355       0.587859
                                                         0.344978       0.010555
                                                         0.099466       0.017325
                          1       8    5fz3             10.077428      -0.467694
                                                         5.847736       0.618100
                                                         2.494033       0.066069
                                                         0.988355       0.262898
                                                         0.344978       0.004720
                                                         0.099466       0.007748

     GTH Potential information for                                   GTH-PBE-q18

       Description:                       Goedecker-Teter-Hutter pseudopotential
                                           Goedecker et al., PRB 54, 1703 (1996)
                                          Hartwigsen et al., PRB 58, 3641 (1998)
                                                      Krack, TCA 114, 145 (2005)

       Gaussian exponent of the core charge distribution:               4.081633
       Electronic configuration (s p d ...):                           4   6   8

       Parameters of the local part of the GTH pseudopotential:

                          rloc        C1          C2          C3          C4
                        0.350000    2.102166    0.648484

       Parameters of the non-local part of the GTH pseudopotential:

                   l      r(l)      h(i,j,l)

                   0    0.261295    0.622658    9.970227
                                    9.970227  -12.871507
                   1    0.224253  -11.142708   12.429566
                                   12.429566  -14.706861
                   2    0.215348  -12.628146

  2. Atomic kind: Ni_b                                  Number of atoms:      16

     Orbital Basis Set                                        DZVP-MOLOPT-SR-GTH

       Number of orbital shell sets:                                           1
       Number of orbital shells:                                               8
       Number of primitive Cartesian functions:                                6
       Number of Cartesian basis functions:                                   31
       Number of spherical basis functions:                                   26
       Norm type:                                                              2

       Normalised Cartesian orbitals:

                        Set   Shell   Orbital            Exponent    Coefficient

                          1       1    2s               10.077428      -0.684558
                                                         5.847736      -0.844524
                                                         2.494033       1.088856
                                                         0.988355       0.395503
                                                         0.344978       0.010224
                                                         0.099466      -0.003250

                          1       2    3s               10.077428       0.096747
                                                         5.847736       0.162504
                                                         2.494033      -0.297192
                                                         0.988355      -0.319752
                                                         0.344978       0.088318
                                                         0.099466       0.118587

                          1       3    4s               10.077428       0.036437
                                                         5.847736      -0.381480
                                                         2.494033       0.003759
                                                         0.988355      -1.048256
                                                         0.344978       0.855825
                                                         0.099466      -0.176350

                          1       4    3px              10.077428      -3.133913
                                                         5.847736       3.027656
                                                         2.494033       2.353227
                                                         0.988355       0.554184
                                                         0.344978       0.019462
                                                         0.099466      -0.000291
                          1       4    3py              10.077428      -3.133913
                                                         5.847736       3.027656
                                                         2.494033       2.353227
                                                         0.988355       0.554184
                                                         0.344978       0.019462
                                                         0.099466      -0.000291
                          1       4    3pz              10.077428      -3.133913
                                                         5.847736       3.027656
                                                         2.494033       2.353227
                                                         0.988355       0.554184
                                                         0.344978       0.019462
                                                         0.099466      -0.000291

                          1       5    4px              10.077428      -0.112729
                                                         5.847736      -0.114008
                                                         2.494033      -0.347303
                                                         0.988355      -0.110323
                                                         0.344978       0.154096
                                                         0.099466       0.058386
                          1       5    4py              10.077428      -0.112729
                                                         5.847736      -0.114008
                                                         2.494033      -0.347303
                                                         0.988355      -0.110323
                                                         0.344978       0.154096
                                                         0.099466       0.058386
                          1       5    4pz              10.077428      -0.112729
                                                         5.847736      -0.114008
                                                         2.494033      -0.347303
                                                         0.988355      -0.110323
                                                         0.344978       0.154096
                                                         0.099466       0.058386

                          1       6    4dx2             10.077428       8.232726
                                                         5.847736       9.105758
                                                         2.494033       2.849835
                                                         0.988355       0.554319
                                                         0.344978       0.067245
                                                         0.099466       0.001940
                          1       6    4dxy             10.077428      14.259500
                                                         5.847736      15.771636
                                                         2.494033       4.936060
                                                         0.988355       0.960109
                                                         0.344978       0.116472
                                                         0.099466       0.003360
                          1       6    4dxz             10.077428      14.259500
                                                         5.847736      15.771636
                                                         2.494033       4.936060
                                                         0.988355       0.960109
                                                         0.344978       0.116472
                                                         0.099466       0.003360
                          1       6    4dy2             10.077428       8.232726
                                                         5.847736       9.105758
                                                         2.494033       2.849835
                                                         0.988355       0.554319
                                                         0.344978       0.067245
                                                         0.099466       0.001940
                          1       6    4dyz             10.077428      14.259500
                                                         5.847736      15.771636
                                                         2.494033       4.936060
                                                         0.988355       0.960109
                                                         0.344978       0.116472
                                                         0.099466       0.003360
                          1       6    4dz2             10.077428       8.232726
                                                         5.847736       9.105758
                                                         2.494033       2.849835
                                                         0.988355       0.554319
                                                         0.344978       0.067245
                                                         0.099466       0.001940

                          1       7    5dx2             10.077428      -2.715373
                                                         5.847736      -4.020640
                                                         2.494033      -1.397569
                                                         0.988355      -0.076143
                                                         0.344978       0.033435
                                                         0.099466       0.026032
                          1       7    5dxy             10.077428      -4.703164
                                                         5.847736      -6.963952
                                                         2.494033      -2.420661
                                                         0.988355      -0.131883
                                                         0.344978       0.057911
                                                         0.099466       0.045088
                          1       7    5dxz             10.077428      -4.703164
                                                         5.847736      -6.963952
                                                         2.494033      -2.420661
                                                         0.988355      -0.131883
                                                         0.344978       0.057911
                                                         0.099466       0.045088
                          1       7    5dy2             10.077428      -2.715373
                                                         5.847736      -4.020640
                                                         2.494033      -1.397569
                                                         0.988355      -0.076143
                                                         0.344978       0.033435
                                                         0.099466       0.026032
                          1       7    5dyz             10.077428      -4.703164
                                                         5.847736      -6.963952
                                                         2.494033      -2.420661
                                                         0.988355      -0.131883
                                                         0.344978       0.057911
                                                         0.099466       0.045088
                          1       7    5dz2             10.077428      -2.715373
                                                         5.847736      -4.020640
                                                         2.494033      -1.397569
                                                         0.988355      -0.076143
                                                         0.344978       0.033435
                                                         0.099466       0.026032

                          1       8    5fx3             10.077428      -0.467694
                                                         5.847736       0.618100
                                                         2.494033       0.066069
                                                         0.988355       0.262898
                                                         0.344978       0.004720
                                                         0.099466       0.007748
                          1       8    5fx2y            10.077428      -1.045795
                                                         5.847736       1.382114
                                                         2.494033       0.147734
                                                         0.988355       0.587859
                                                         0.344978       0.010555
                                                         0.099466       0.017325
                          1       8    5fx2z            10.077428      -1.045795
                                                         5.847736       1.382114
                                                         2.494033       0.147734
                                                         0.988355       0.587859
                                                         0.344978       0.010555
                                                         0.099466       0.017325
                          1       8    5fxy2            10.077428      -1.045795
                                                         5.847736       1.382114
                                                         2.494033       0.147734
                                                         0.988355       0.587859
                                                         0.344978       0.010555
                                                         0.099466       0.017325
                          1       8    5fxyz            10.077428      -1.811371
                                                         5.847736       2.393892
                                                         2.494033       0.255883
                                                         0.988355       1.018201
                                                         0.344978       0.018282
                                                         0.099466       0.030008
                          1       8    5fxz2            10.077428      -1.045795
                                                         5.847736       1.382114
                                                         2.494033       0.147734
                                                         0.988355       0.587859
                                                         0.344978       0.010555
                                                         0.099466       0.017325
                          1       8    5fy3             10.077428      -0.467694
                                                         5.847736       0.618100
                                                         2.494033       0.066069
                                                         0.988355       0.262898
                                                         0.344978       0.004720
                                                         0.099466       0.007748
                          1       8    5fy2z            10.077428      -1.045795
                                                         5.847736       1.382114
                                                         2.494033       0.147734
                                                         0.988355       0.587859
                                                         0.344978       0.010555
                                                         0.099466       0.017325
                          1       8    5fyz2            10.077428      -1.045795
                                                         5.847736       1.382114
                                                         2.494033       0.147734
                                                         0.988355       0.587859
                                                         0.344978       0.010555
                                                         0.099466       0.017325
                          1       8    5fz3             10.077428      -0.467694
                                                         5.847736       0.618100
                                                         2.494033       0.066069
                                                         0.988355       0.262898
                                                         0.344978       0.004720
                                                         0.099466       0.007748

     GTH Potential information for                                   GTH-PBE-q18

       Description:                       Goedecker-Teter-Hutter pseudopotential
                                           Goedecker et al., PRB 54, 1703 (1996)
                                          Hartwigsen et al., PRB 58, 3641 (1998)
                                                      Krack, TCA 114, 145 (2005)

       Gaussian exponent of the core charge distribution:               4.081633
       Electronic configuration (s p d ...):                           4   6   8

       Parameters of the local part of the GTH pseudopotential:

                          rloc        C1          C2          C3          C4
                        0.350000    2.102166    0.648484

       Parameters of the non-local part of the GTH pseudopotential:

                   l      r(l)      h(i,j,l)

                   0    0.261295    0.622658    9.970227
                                    9.970227  -12.871507
                   1    0.224253  -11.142708   12.429566
                                   12.429566  -14.706861
                   2    0.215348  -12.628146


 MOLECULE KIND INFORMATION


 All atoms are their own molecule, skipping detailed information


 TOTAL NUMBERS AND MAXIMUM NUMBERS

  Total number of            - Atomic kinds:                                   2
                             - Atoms:                                         32
                             - Shell sets:                                    32
                             - Shells:                                       256
                             - Primitive Cartesian functions:                192
                             - Cartesian basis functions:                    992
                             - Spherical basis functions:                    832

  Maximum angular momentum of- Orbital basis functions:                        3
                             - Local part of the GTH pseudopotential:          2
                             - Non-local part of the GTH pseudopotential:      3


 MODULE QUICKSTEP:  ATOMIC COORDINATES IN angstrom

  Atom  Kind  Element       X           Y           Z          Z(eff)       Mass

       1     1 Ni  28    0.000000    0.000000    0.000000     18.00      58.6934
       2     2 Ni  28    0.000000    1.752900    1.752900     18.00      58.6934
       3     2 Ni  28    1.752900    0.000000    1.752900     18.00      58.6934
       4     1 Ni  28    1.752900    1.752900    0.000000     18.00      58.6934
       5     1 Ni  28    3.505798    0.000000    0.000000     18.00      58.6934
       6     2 Ni  28    3.505798    1.752900    1.752900     18.00      58.6934
       7     2 Ni  28    5.258698    0.000000    1.752900     18.00      58.6934
       8     1 Ni  28    5.258698    1.752900    0.000000     18.00      58.6934
       9     1 Ni  28    0.000000    3.505798    0.000000     18.00      58.6934
      10     2 Ni  28    0.000000    5.258698    1.752900     18.00      58.6934
      11     2 Ni  28    1.752900    3.505798    1.752900     18.00      58.6934
      12     1 Ni  28    1.752900    5.258698    0.000000     18.00      58.6934
      13     1 Ni  28    3.505798    3.505798    0.000000     18.00      58.6934
      14     2 Ni  28    3.505798    5.258698    1.752900     18.00      58.6934
      15     2 Ni  28    5.258698    3.505798    1.752900     18.00      58.6934
      16     1 Ni  28    5.258698    5.258698    0.000000     18.00      58.6934
      17     2 Ni  28    0.000000    0.000000    3.505798     18.00      58.6934
      18     1 Ni  28    0.000000    1.752900    5.258698     18.00      58.6934
      19     1 Ni  28    1.752900    0.000000    5.258698     18.00      58.6934
      20     2 Ni  28    1.752900    1.752900    3.505798     18.00      58.6934
      21     2 Ni  28    3.505798    0.000000    3.505798     18.00      58.6934
      22     1 Ni  28    3.505798    1.752900    5.258698     18.00      58.6934
      23     1 Ni  28    5.258698    0.000000    5.258698     18.00      58.6934
      24     2 Ni  28    5.258698    1.752900    3.505798     18.00      58.6934
      25     2 Ni  28    0.000000    3.505798    3.505798     18.00      58.6934
      26     1 Ni  28    0.000000    5.258698    5.258698     18.00      58.6934
      27     1 Ni  28    1.752900    3.505798    5.258698     18.00      58.6934
      28     2 Ni  28    1.752900    5.258698    3.505798     18.00      58.6934
      29     2 Ni  28    3.505798    3.505798    3.505798     18.00      58.6934
      30     1 Ni  28    3.505798    5.258698    5.258698     18.00      58.6934
      31     1 Ni  28    5.258698    3.505798    5.258698     18.00      58.6934
      32     2 Ni  28    5.258698    5.258698    3.505798     18.00      58.6934




 SCF PARAMETERS         Density guess:                                   RESTART
                        --------------------------------------------------------
                        max_scf:                                             500
                        max_scf_history:                                       0
                        max_diis:                                             10
                        --------------------------------------------------------
                        eps_scf:                                        1.00E-05
                        eps_scf_history:                                0.00E+00
                        eps_diis:                                       1.00E-01
                        eps_eigval:                                     1.00E-05
                        --------------------------------------------------------
                        level_shift [a.u.]:                                 0.00
                        added MOs                                       532  556
                        --------------------------------------------------------
                        Mixing method:                            BROYDEN_MIXING
                                                charge density mixing in g-space
                        --------------------------------------------------------
                        Smear method:                                FERMI_DIRAC
                        Electronic temperature [K]:                        500.0
                        Electronic temperature [a.u.]:                  1.58E-03
                        Accuracy threshold:                             1.00E-10
                        --------------------------------------------------------
                        No outer SCF

 PW_GRID| Information for grid number                                          1
 PW_GRID| Grid distributed over                                    20 processors
 PW_GRID| Real space group dimensions                                    20    1
 PW_GRID| the grid is blocked:                                                NO
 PW_GRID| Cutoff [a.u.]                                                    300.0
 PW_GRID| spherical cutoff:                                                   NO
 PW_GRID|   Bounds   1            -54      53                Points:         108
 PW_GRID|   Bounds   2            -54      53                Points:         108
 PW_GRID|   Bounds   3           -150     149                Points:         300
 PW_GRID| Volume element (a.u.^3)  0.1896E-02     Volume (a.u.^3)      6635.2971
 PW_GRID| Grid span                                                    FULLSPACE
 PW_GRID|   Distribution                         Average         Max         Min
 PW_GRID|   G-Vectors                           174960.0      174960      174960
 PW_GRID|   G-Rays                                1620.0        1620        1620
 PW_GRID|   Real Space Points                   174960.0      194400      162000

 PW_GRID| Information for grid number                                          2
 PW_GRID| Number of the reference grid                                         1
 PW_GRID| Grid distributed over                                    20 processors
 PW_GRID| Real space group dimensions                                    20    1
 PW_GRID| the grid is blocked:                                                NO
 PW_GRID| Cutoff [a.u.]                                                    100.0
 PW_GRID| spherical cutoff:                                                   NO
 PW_GRID|   Bounds   1            -30      29                Points:          60
 PW_GRID|   Bounds   2            -30      29                Points:          60
 PW_GRID|   Bounds   3            -90      89                Points:         180
 PW_GRID| Volume element (a.u.^3)  0.1024E-01     Volume (a.u.^3)      6635.2971
 PW_GRID| Grid span                                                    FULLSPACE
 PW_GRID|   Distribution                         Average         Max         Min
 PW_GRID|   G-Vectors                            32400.0       32640       32160
 PW_GRID|   G-Rays                                 540.0         544         536
 PW_GRID|   Real Space Points                    32400.0       32400       32400

 PW_GRID| Information for grid number                                          3
 PW_GRID| Number of the reference grid                                         1
 PW_GRID| Grid distributed over                                    20 processors
 PW_GRID| Real space group dimensions                                    20    1
 PW_GRID| the grid is blocked:                                                NO
 PW_GRID| Cutoff [a.u.]                                                     33.3
 PW_GRID| spherical cutoff:                                                   NO
 PW_GRID|   Bounds   1            -18      17                Points:          36
 PW_GRID|   Bounds   2            -18      17                Points:          36
 PW_GRID|   Bounds   3            -50      49                Points:         100
 PW_GRID| Volume element (a.u.^3)  0.5120E-01     Volume (a.u.^3)      6635.2971
 PW_GRID| Grid span                                                    FULLSPACE
 PW_GRID|   Distribution                         Average         Max         Min
 PW_GRID|   G-Vectors                             6480.0        6588        6300
 PW_GRID|   G-Rays                                 180.0         183         175
 PW_GRID|   Real Space Points                     6480.0        7200        3600

 PW_GRID| Information for grid number                                          4
 PW_GRID| Number of the reference grid                                         1
 PW_GRID| Grid distributed over                                    20 processors
 PW_GRID| Real space group dimensions                                    20    1
 PW_GRID| the grid is blocked:                                                NO
 PW_GRID| Cutoff [a.u.]                                                     11.1
 PW_GRID| spherical cutoff:                                                   NO
 PW_GRID|   Bounds   1            -10       9                Points:          20
 PW_GRID|   Bounds   2            -10       9                Points:          20
 PW_GRID|   Bounds   3            -30      29                Points:          60
 PW_GRID| Volume element (a.u.^3)  0.2765         Volume (a.u.^3)      6635.2971
 PW_GRID| Grid span                                                    FULLSPACE
 PW_GRID|   Distribution                         Average         Max         Min
 PW_GRID|   G-Vectors                             1200.0        1320        1060
 PW_GRID|   G-Rays                                  60.0          66          53
 PW_GRID|   Real Space Points                     1200.0        1200        1200

 PW_GRID| Information for grid number                                          5
 PW_GRID| Number of the reference grid                                         1
 PW_GRID| Grid distributed over                                    20 processors
 PW_GRID| Real space group dimensions                                     4    5
 PW_GRID| the grid is blocked:                                                NO
 PW_GRID| Cutoff [a.u.]                                                      3.7
 PW_GRID| spherical cutoff:                                                   NO
 PW_GRID|   Bounds   1             -6       5                Points:          12
 PW_GRID|   Bounds   2             -6       5                Points:          12
 PW_GRID|   Bounds   3            -18      17                Points:          36
 PW_GRID| Volume element (a.u.^3)   1.280         Volume (a.u.^3)      6635.2971
 PW_GRID| Grid span                                                    FULLSPACE
 PW_GRID|   Distribution                         Average         Max         Min
 PW_GRID|   G-Vectors                              259.2         300         204
 PW_GRID|   G-Rays                                  21.6          25          17
 PW_GRID|   Real Space Points                      259.2         324         216

 POISSON| Solver                                                        PERIODIC
 POISSON| Periodicity                                                        XYZ

 RS_GRID| Information for grid number                                          1
 RS_GRID|   Bounds   1            -54      53                Points:         108
 RS_GRID|   Bounds   2            -54      53                Points:         108
 RS_GRID|   Bounds   3           -150     149                Points:         300
 RS_GRID| Real space distribution over                                 20 groups
 RS_GRID| Real space distribution along direction                              3
 RS_GRID| Border size                                                         28
 RS_GRID|   Distribution                         Average         Max         Min
 RS_GRID|   Planes                                  71.0          71          71

 RS_GRID| Information for grid number                                          2
 RS_GRID|   Bounds   1            -30      29                Points:          60
 RS_GRID|   Bounds   2            -30      29                Points:          60
 RS_GRID|   Bounds   3            -90      89                Points:         180
 RS_GRID| Real space distribution over                                 20 groups
 RS_GRID| Real space distribution along direction                              3
 RS_GRID| Border size                                                         28
 RS_GRID|   Distribution                         Average         Max         Min
 RS_GRID|   Planes                                  65.0          65          65

 RS_GRID| Information for grid number                                          3
 RS_GRID|   Bounds   1            -18      17                Points:          36
 RS_GRID|   Bounds   2            -18      17                Points:          36
 RS_GRID|   Bounds   3            -50      49                Points:         100
 RS_GRID| Real space fully replicated
 RS_GRID| Group size                                                           1

 RS_GRID| Information for grid number                                          4
 RS_GRID|   Bounds   1            -10       9                Points:          20
 RS_GRID|   Bounds   2            -10       9                Points:          20
 RS_GRID|   Bounds   3            -30      29                Points:          60
 RS_GRID| Real space fully replicated
 RS_GRID| Group size                                                           1

 RS_GRID| Information for grid number                                          5
 RS_GRID|   Bounds   1             -6       5                Points:          12
 RS_GRID|   Bounds   2             -6       5                Points:          12
 RS_GRID|   Bounds   3            -18      17                Points:          36
 RS_GRID| Real space fully replicated
 RS_GRID| Group size                                                           1

 Spin 1

 Number of electrons:                                                        300
 Number of occupied orbitals:                                                300
 Number of molecular orbitals:                                               832

 Spin 2

 Number of electrons:                                                        276
 Number of occupied orbitals:                                                276
 Number of molecular orbitals:                                               832

 Number of orbital functions:                                                832
 Number of independent orbital functions:                                    832

 Extrapolation method: initial_guess


 SCF WAVEFUNCTION OPTIMIZATION

  Step     Update method      Time    Convergence         Total energy    Change
  ------------------------------------------------------------------------------
     1 NoMix/Diag. 0.10E-03    1.1     0.54092474     -5417.1075591374 -5.42E+03
     2 Broy./Diag. 0.10E-03    1.6     0.00212558     -5392.8208290996  2.43E+01
     3 Broy./Diag. 0.10E-03    1.4     0.66120677     -5393.4684343609 -6.48E-01
     4 Broy./Diag. 0.10E-03    1.4     0.07444696     -5379.5240456847  1.39E+01
     5 Broy./Diag. 0.10E-03    1.4     0.14348000     -5379.5679220274 -4.39E-02
     6 Broy./Diag. 0.10E-03    1.4     0.09348839     -5380.8594166632 -1.29E+00
     7 Broy./Diag. 0.10E-03    1.4     0.02490066     -5380.0058766429  8.54E-01
     8 Broy./Diag. 0.10E-03    1.4     0.06294596     -5380.6420627145 -6.36E-01
     9 Broy./Diag. 0.10E-03    1.5     0.22358738     -5382.5387263490 -1.90E+00
    10 Broy./Diag. 0.10E-03    1.5     0.09281249     -5388.1189713423 -5.58E+00
    11 Broy./Diag. 0.10E-03    1.4     0.02851813     -5387.5498595340  5.69E-01
    12 Broy./Diag. 0.10E-03    1.4     0.00997348     -5386.6608158446  8.89E-01
    13 Broy./Diag. 0.10E-03    1.4     0.07823046     -5386.2826732341  3.78E-01
    14 Broy./Diag. 0.10E-03    1.5     0.00363527     -5386.0936861871  1.89E-01
    15 Broy./Diag. 0.10E-03    1.5     0.04054209     -5386.5000521608 -4.06E-01
    16 Broy./Diag. 0.10E-03    1.5     0.12567274     -5391.0730083507 -4.57E+00
    17 Broy./Diag. 0.10E-03    1.4     0.04720817     -5404.3402964679 -1.33E+01
    18 Broy./Diag. 0.10E-03    1.4     0.02479289     -5406.4747141714 -2.13E+00
    19 Broy./Diag. 0.10E-03    1.4     0.01362937     -5408.5017974455 -2.03E+00
    20 Broy./Diag. 0.10E-03    1.4     0.02487344     -5410.2371711892 -1.74E+00
    21 Broy./Diag. 0.10E-03    1.4     0.10358444     -5408.7399814132  1.50E+00
    22 Broy./Diag. 0.10E-03    1.4     0.04466698     -5404.5576640679  4.18E+00
    23 Broy./Diag. 0.10E-03    1.5     0.12081817     -5412.6204494928 -8.06E+00
    24 Broy./Diag. 0.10E-03    1.5     0.03510558     -5421.1899132330 -8.57E+00
    25 Broy./Diag. 0.10E-03    1.4     0.01221279     -5422.2371755981 -1.05E+00
    26 Broy./Diag. 0.10E-03    1.4     0.01954376     -5422.6398601138 -4.03E-01
    27 Broy./Diag. 0.10E-03    1.5     0.02671715     -5422.5609053322  7.90E-02
    28 Broy./Diag. 0.10E-03    1.6     0.01819483     -5422.4046049998  1.56E-01
    29 Broy./Diag. 0.10E-03    1.7     0.01323012     -5422.2096564703  1.95E-01
    30 Broy./Diag. 0.10E-03    1.5     0.00781914     -5422.6763067068 -4.67E-01
    31 Broy./Diag. 0.10E-03    1.5     0.03812701     -5422.6667793688  9.53E-03
    32 Broy./Diag. 0.10E-03    1.4     0.00908978     -5423.1902134905 -5.23E-01
    33 Broy./Diag. 0.10E-03    1.4     0.02149932     -5423.4821160879 -2.92E-01
    34 Broy./Diag. 0.10E-03    1.4     0.03164908     -5423.4756683481  6.45E-03
    35 Broy./Diag. 0.10E-03    1.4     0.01574126     -5422.9543706656  5.21E-01
    36 Broy./Diag. 0.10E-03    1.5     0.01265657     -5423.2530374353 -2.99E-01
    37 Broy./Diag. 0.10E-03    1.5     0.00755498     -5423.0558623494  1.97E-01
    38 Broy./Diag. 0.10E-03    1.5     0.01216295     -5423.0895126718 -3.37E-02
    39 Broy./Diag. 0.10E-03    1.5     0.10639938     -5422.7905324455  2.99E-01
    40 Broy./Diag. 0.10E-03    1.5     0.01643060     -5423.2110760560 -4.21E-01
    41 Broy./Diag. 0.10E-03    1.5     0.03273205     -5423.1270515435  8.40E-02
    42 Broy./Diag. 0.10E-03    1.5     0.07594899     -5420.8343141319  2.29E+00
    43 Broy./Diag. 0.10E-03    1.5     0.02355809     -5416.1189676536  4.72E+00
    44 Broy./Diag. 0.10E-03    1.5     0.02690475     -5415.3457220383  7.73E-01
    45 Broy./Diag. 0.10E-03    1.5     0.01118434     -5415.6238069947 -2.78E-01
    46 Broy./Diag. 0.10E-03    1.5     0.12462280     -5417.2923897514 -1.67E+00
    47 Broy./Diag. 0.10E-03    1.5     0.05426153     -5416.6678271691  6.25E-01
    48 Broy./Diag. 0.10E-03    1.4     0.05200151     -5416.1015820280  5.66E-01
    49 Broy./Diag. 0.10E-03    1.4     0.05982223     -5416.2706667971 -1.69E-01
    50 Broy./Diag. 0.10E-03    1.4     0.02591613     -5416.8596738586 -5.89E-01
    51 Broy./Diag. 0.10E-03    1.5     0.05441404     -5416.2517397564  6.08E-01
    52 Broy./Diag. 0.10E-03    1.4     0.04684356     -5415.8024532028  4.49E-01
    53 Broy./Diag. 0.10E-03    1.5     0.00626120     -5416.0010660043 -1.99E-01
    54 Broy./Diag. 0.10E-03    1.5     0.02689322     -5416.5526777989 -5.52E-01
    55 Broy./Diag. 0.10E-03    1.6     0.01536901     -5416.5915456506 -3.89E-02
    56 Broy./Diag. 0.10E-03    1.7     0.02669270     -5417.2186367343 -6.27E-01
    57 Broy./Diag. 0.10E-03    1.5     0.01598162     -5416.7551470928  4.63E-01
    58 Broy./Diag. 0.10E-03    1.5     0.02768609     -5417.0157847367 -2.61E-01
    59 Broy./Diag. 0.10E-03    1.5     0.02941384     -5416.6745863301  3.41E-01
    60 Broy./Diag. 0.10E-03    1.5     0.02597079     -5416.9775146214 -3.03E-01
    61 Broy./Diag. 0.10E-03    1.5     0.01767099     -5416.4849678732  4.93E-01
    62 Broy./Diag. 0.10E-03    1.5     0.03481424     -5416.4146146895  7.04E-02
    63 Broy./Diag. 0.10E-03    1.5     0.01082008     -5417.5462906055 -1.13E+00
    64 Broy./Diag. 0.10E-03    1.5     0.01197828     -5418.0054030976 -4.59E-01
    65 Broy./Diag. 0.10E-03    1.5     0.04476592     -5417.6207755498  3.85E-01
    66 Broy./Diag. 0.10E-03    1.5     0.04667645     -5416.2065260369  1.41E+00
    67 Broy./Diag. 0.10E-03    1.5     0.02212026     -5415.3228143646  8.84E-01
    68 Broy./Diag. 0.10E-03    1.5     0.05120024     -5415.0085134211  3.14E-01
    69 Broy./Diag. 0.10E-03    1.5     0.01467585     -5416.7066950844 -1.70E+00
    70 Broy./Diag. 0.10E-03    1.5     0.00880569     -5416.6560011972  5.07E-02
    71 Broy./Diag. 0.10E-03    1.5     0.02097591     -5416.0019133231  6.54E-01
    72 Broy./Diag. 0.10E-03    1.5     0.02167876     -5415.6913070163  3.11E-01
    73 Broy./Diag. 0.10E-03    1.5     0.02961646     -5415.6901300904  1.18E-03
    74 Broy./Diag. 0.10E-03    1.5     0.01779736     -5416.1465248865 -4.56E-01
    75 Broy./Diag. 0.10E-03    1.5     0.02725763     -5416.2416056044 -9.51E-02
    76 Broy./Diag. 0.10E-03    1.5     0.03790346     -5416.1842829443  5.73E-02
    77 Broy./Diag. 0.10E-03    1.5     0.06607338     -5417.3747854144 -1.19E+00
    78 Broy./Diag. 0.10E-03    1.5     0.02271225     -5418.5225646380 -1.15E+00
    79 Broy./Diag. 0.10E-03    1.5     0.02502139     -5417.8984966127  6.24E-01
    80 Broy./Diag. 0.10E-03    1.5     0.01010884     -5418.0923237638 -1.94E-01
    81 Broy./Diag. 0.10E-03    1.5     0.04581713     -5417.6983092161  3.94E-01
    82 Broy./Diag. 0.10E-03    1.7     0.04587459     -5418.5406597175 -8.42E-01
    83 Broy./Diag. 0.10E-03    1.7     0.04060393     -5416.7836536224  1.76E+00
    84 Broy./Diag. 0.10E-03    1.5     0.05370573     -5415.8347103906  9.49E-01
    85 Broy./Diag. 0.10E-03    1.5     0.08477637     -5416.8837115063 -1.05E+00
    86 Broy./Diag. 0.10E-03    1.5     0.03284633     -5417.5496566274 -6.66E-01
    87 Broy./Diag. 0.10E-03    1.5     0.02392573     -5418.0190240123 -4.69E-01
    88 Broy./Diag. 0.10E-03    1.5     0.01340644     -5417.6696706897  3.49E-01
    89 Broy./Diag. 0.10E-03    1.5     0.00667571     -5416.1976547117  1.47E+00
    90 Broy./Diag. 0.10E-03    1.5     0.02357974     -5415.9089155553  2.89E-01
    91 Broy./Diag. 0.10E-03    1.5     0.01334223     -5418.3908934253 -2.48E+00
    92 Broy./Diag. 0.10E-03    1.5     0.01064102     -5417.3238578407  1.07E+00
    93 Broy./Diag. 0.10E-03    1.4     0.07432154     -5416.8693544204  4.55E-01
    94 Broy./Diag. 0.10E-03    1.4     0.03903148     -5416.3966839539  4.73E-01
    95 Broy./Diag. 0.10E-03    1.4     0.06195495     -5416.5836509939 -1.87E-01
    96 Broy./Diag. 0.10E-03    1.5     0.04336653     -5416.9173498966 -3.34E-01
    97 Broy./Diag. 0.10E-03    1.5     0.05825079     -5416.5444141843  3.73E-01
    98 Broy./Diag. 0.10E-03    1.5     0.02299463     -5417.8258159248 -1.28E+00
    99 Broy./Diag. 0.10E-03    1.5     0.08390863     -5417.8827685690 -5.70E-02
   100 Broy./Diag. 0.10E-03    1.5     0.01709937     -5417.4331793080  4.50E-01
   101 Broy./Diag. 0.10E-03    1.5     0.03345525     -5417.1525479911  2.81E-01
   102 Broy./Diag. 0.10E-03    1.5     0.07808569     -5416.6069176777  5.46E-01
   103 Broy./Diag. 0.10E-03    1.5     0.08218476     -5417.0606628025 -4.54E-01
   104 Broy./Diag. 0.10E-03    1.5     0.08683764     -5417.2193698954 -1.59E-01
   105 Broy./Diag. 0.10E-03    1.5     0.01918519     -5416.0920772464  1.13E+00
   106 Broy./Diag. 0.10E-03    1.5     0.03480555     -5416.0526761079  3.94E-02
   107 Broy./Diag. 0.10E-03    1.5     0.00366281     -5416.2058010518 -1.53E-01
   108 Broy./Diag. 0.10E-03    1.5     0.01628901     -5416.8472295047 -6.41E-01
   109 Broy./Diag. 0.10E-03    1.6     0.01903248     -5417.2625709814 -4.15E-01
   110 Broy./Diag. 0.10E-03    1.7     0.01829835     -5414.2827060315  2.98E+00
   111 Broy./Diag. 0.10E-03    1.5     0.01070139     -5414.6888483628 -4.06E-01
   112 Broy./Diag. 0.10E-03    1.5     0.04604950     -5415.1480865417 -4.59E-01
   113 Broy./Diag. 0.10E-03    1.5     0.05728683     -5414.9558427112  1.92E-01
   114 Broy./Diag. 0.10E-03    1.5     0.04560020     -5414.6969782754  2.59E-01
   115 Broy./Diag. 0.10E-03    1.5     0.02419020     -5414.8695426038 -1.73E-01
   116 Broy./Diag. 0.10E-03    1.4     0.03122470     -5414.9930437475 -1.24E-01
   117 Broy./Diag. 0.10E-03    1.4     0.04702858     -5416.1792339966 -1.19E+00
   118 Broy./Diag. 0.10E-03    1.4     0.06584380     -5415.8560223750  3.23E-01
   119 Broy./Diag. 0.10E-03    1.5     0.03001714     -5416.2448881767 -3.89E-01
   120 Broy./Diag. 0.10E-03    1.5     0.01802656     -5416.8844655172 -6.40E-01
   121 Broy./Diag. 0.10E-03    1.5     0.00948723     -5416.4563466806  4.28E-01
   122 Broy./Diag. 0.10E-03    1.5     0.00828184     -5417.0001361693 -5.44E-01
   123 Broy./Diag. 0.10E-03    1.5     0.02727756     -5416.6308200660  3.69E-01
   124 Broy./Diag. 0.10E-03    1.5     0.04107388     -5416.7539446431 -1.23E-01
   125 Broy./Diag. 0.10E-03    1.5     0.02979603     -5416.0965124297  6.57E-01
   126 Broy./Diag. 0.10E-03    1.5     0.02740519     -5415.4375766119  6.59E-01
   127 Broy./Diag. 0.10E-03    1.5     0.08416175     -5415.4779845505 -4.04E-02
   128 Broy./Diag. 0.10E-03    1.5     0.01551983     -5413.9766571822  1.50E+00
   129 Broy./Diag. 0.10E-03    1.5     0.00476323     -5414.1553836404 -1.79E-01
   130 Broy./Diag. 0.10E-03    1.5     0.04387550     -5414.1938387382 -3.85E-02
   131 Broy./Diag. 0.10E-03    1.5     0.06147084     -5412.9061924280  1.29E+00
   132 Broy./Diag. 0.10E-03    1.5     0.04901179     -5413.4814546533 -5.75E-01
   133 Broy./Diag. 0.10E-03    1.5     0.02638622     -5414.0267854870 -5.45E-01
   134 Broy./Diag. 0.10E-03    1.5     0.07256585     -5413.6023696469  4.24E-01
   135 Broy./Diag. 0.10E-03    1.6     0.06212627     -5413.8853419469 -2.83E-01
   136 Broy./Diag. 0.10E-03    1.7     0.01989378     -5415.2408264317 -1.36E+00
   137 Broy./Diag. 0.10E-03    1.5     0.02198073     -5415.0174010352  2.23E-01
   138 Broy./Diag. 0.10E-03    1.5     0.03661485     -5415.0749212690 -5.75E-02
   139 Broy./Diag. 0.10E-03    1.5     0.02646695     -5414.8411696255  2.34E-01
   140 Broy./Diag. 0.10E-03    1.5     0.03755430     -5414.9002076327 -5.90E-02
   141 Broy./Diag. 0.10E-03    1.5     0.01776250     -5414.8944966888  5.71E-03
   142 Broy./Diag. 0.10E-03    1.5     0.04895632     -5414.8752536775  1.92E-02
   143 Broy./Diag. 0.10E-03    1.5     0.02169975     -5415.3181026495 -4.43E-01
   144 Broy./Diag. 0.10E-03    1.5     0.03117503     -5415.5848136796 -2.67E-01
   145 Broy./Diag. 0.10E-03    1.5     0.01078004     -5416.5831275820 -9.98E-01
   146 Broy./Diag. 0.10E-03    1.5     0.01037783     -5416.9371970593 -3.54E-01
   147 Broy./Diag. 0.10E-03    1.5     0.01848683     -5416.1239828457  8.13E-01
   148 Broy./Diag. 0.10E-03    1.5     0.04580996     -5415.5622548152  5.62E-01
   149 Broy./Diag. 0.10E-03    1.5     0.02589861     -5415.0989096868  4.63E-01
   150 Broy./Diag. 0.10E-03    1.5     0.02921525     -5415.0786136931  2.03E-02
   151 Broy./Diag. 0.10E-03    1.5     0.01619099     -5416.1213210455 -1.04E+00
   152 Broy./Diag. 0.10E-03    1.5     0.12374758     -5415.5004102020  6.21E-01
   153 Broy./Diag. 0.10E-03    1.5     0.06434169     -5414.0285635065  1.47E+00
   154 Broy./Diag. 0.10E-03    1.5     0.13252667     -5413.9714925108  5.71E-02
   155 Broy./Diag. 0.10E-03    1.5     0.12196295     -5417.1145289260 -3.14E+00
   156 Broy./Diag. 0.10E-03    1.5     0.04141881     -5414.5089961915  2.61E+00
   157 Broy./Diag. 0.10E-03    1.5     0.08979584     -5415.7353582733 -1.23E+00
   158 Broy./Diag. 0.10E-03    1.5     0.11723778     -5418.2637362485 -2.53E+00
   159 Broy./Diag. 0.10E-03    1.5     0.12249773     -5420.3659664328 -2.10E+00
   160 Broy./Diag. 0.10E-03    1.5     0.01589295     -5418.7139892164  1.65E+00
   161 Broy./Diag. 0.10E-03    1.5     0.04634304     -5419.1434258548 -4.29E-01
   162 Broy./Diag. 0.10E-03    1.6     0.02435406     -5419.6153861524 -4.72E-01
   163 Broy./Diag. 0.10E-03    1.7     0.08361873     -5419.9760465675 -3.61E-01
   164 Broy./Diag. 0.10E-03    1.5     0.09250077     -5420.1913065094 -2.15E-01
   165 Broy./Diag. 0.10E-03    1.5     0.05242343     -5420.1898177280  1.49E-03
   166 Broy./Diag. 0.10E-03    1.5     0.07213979     -5417.5210124687  2.67E+00
   167 Broy./Diag. 0.10E-03    1.5     0.06544967     -5417.2965530046  2.24E-01
   168 Broy./Diag. 0.10E-03    1.5     0.02804482     -5417.7442768822 -4.48E-01
   169 Broy./Diag. 0.10E-03    1.5     0.03727450     -5418.2741479092 -5.30E-01
   170 Broy./Diag. 0.10E-03    1.5     0.01338373     -5418.8106491726 -5.37E-01
   171 Broy./Diag. 0.10E-03    1.5     0.01363272     -5418.7724313187  3.82E-02
   172 Broy./Diag. 0.10E-03    1.5     0.02339859     -5416.3380185851  2.43E+00
   173 Broy./Diag. 0.10E-03    1.5     0.01764572     -5416.0738540096  2.64E-01
   174 Broy./Diag. 0.10E-03    1.5     0.05325098     -5417.0631029745 -9.89E-01
   175 Broy./Diag. 0.10E-03    1.5     0.09935774     -5417.0605071439  2.60E-03
   176 Broy./Diag. 0.10E-03    1.5     0.02014403     -5417.0998550712 -3.93E-02
   177 Broy./Diag. 0.10E-03    1.5     0.04873958     -5417.8670629534 -7.67E-01
   178 Broy./Diag. 0.10E-03    1.5     0.02122574     -5417.7057709868  1.61E-01
   179 Broy./Diag. 0.10E-03    1.5     0.01949149     -5417.9076729849 -2.02E-01
   180 Broy./Diag. 0.10E-03    1.5     0.01523748     -5417.8163511248  9.13E-02
   181 Broy./Diag. 0.10E-03    1.5     0.04587303     -5418.1122145418 -2.96E-01
   182 Broy./Diag. 0.10E-03    1.5     0.02132095     -5417.9652357057  1.47E-01
   183 Broy./Diag. 0.10E-03    1.5     0.02649342     -5417.8893192641  7.59E-02
   184 Broy./Diag. 0.10E-03    1.5     0.07536209     -5417.7429317704  1.46E-01
   185 Broy./Diag. 0.10E-03    1.5     0.02543107     -5417.6740069633  6.89E-02
   186 Broy./Diag. 0.10E-03    1.5     0.01213371     -5417.8160138149 -1.42E-01
   187 Broy./Diag. 0.10E-03    1.5     0.01578253     -5417.6475479407  1.68E-01
   188 Broy./Diag. 0.10E-03    1.5     0.01446347     -5417.3624909884  2.85E-01
   189 Broy./Diag. 0.10E-03    1.7     0.01769367     -5417.3234187444  3.91E-02
   190 Broy./Diag. 0.10E-03    1.7     0.06056215     -5417.4031311452 -7.97E-02
   191 Broy./Diag. 0.10E-03    1.5     0.01308908     -5417.6055436290 -2.02E-01
   192 Broy./Diag. 0.10E-03    1.5     0.02633919     -5417.4669538600  1.39E-01
   193 Broy./Diag. 0.10E-03    1.5     0.06732445     -5417.4798205195 -1.29E-02
   194 Broy./Diag. 0.10E-03    1.5     0.08475536     -5417.8900089430 -4.10E-01
   195 Broy./Diag. 0.10E-03    1.5     0.06306605     -5417.6741301306  2.16E-01
   196 Broy./Diag. 0.10E-03    1.5     0.04884528     -5417.9384153464 -2.64E-01
   197 Broy./Diag. 0.10E-03    1.5     0.07008594     -5417.8397926965  9.86E-02
   198 Broy./Diag. 0.10E-03    1.5     0.04226006     -5417.3960194611  4.44E-01
   199 Broy./Diag. 0.10E-03    1.5     0.03134151     -5417.5694275435 -1.73E-01
   200 Broy./Diag. 0.10E-03    1.5     0.03255375     -5417.8565642280 -2.87E-01
