 DBCSR| CPU Multiplication driver                                           XSMM (U)
 DBCSR| Multrec recursion limit                                              512 (U)
 DBCSR| Multiplication stack size                                           1000 (D)
 DBCSR| Maximum elements for images                                    UNLIMITED (U)
 DBCSR| Multiplicative factor virtual images                                   1 (U)
 DBCSR| Use multiplication densification                                       T (D)
 DBCSR| Multiplication size stacks                                             3 (U)
 DBCSR| Use memory pool for CPU allocation                                     F (U)
 DBCSR| Number of 3D layers                                               SINGLE (U)
 DBCSR| Use MPI memory allocation                                              F (U)
 DBCSR| Use RMA algorithm                                                      F (U)
 DBCSR| Use Communication thread                                               T (U)
 DBCSR| Communication thread load                                             87 (D)
 DBCSR| MPI: My process id                                                     0
 DBCSR| MPI: Number of processes                                             128
 DBCSR| OMP: Current number of threads                                         1
 DBCSR| OMP: Max number of threads                                             1
 DBCSR| Split modifier for TAS multiplication algorithm                  1.0E+00 (U)


  **** **** ******  **  PROGRAM STARTED AT               2023-02-15 13:23:41.710
 ***** ** ***  *** **   PROGRAM STARTED ON                             nid003070
 **    ****   ******    PROGRAM STARTED BY                                cahart
 ***** **    ** ** **   PROGRAM PROCESS ID                                162785
  **** **  *******  **  PROGRAM STARTED IN /mnt/lustre/a2fs-work2/work/e05/e05/c
                                           ahart/postdoc/masters/ni/archer2/slab
                                           /optimise/magnetisation/scf_1e-4_temp
                                           -2000_mos-1000_alpha-0.08_beta-1.5_pe
                                           riodic-xyz/search/0.42_0.7

 CP2K| version string:                 CP2K version 2023.1 (Development Version)
 CP2K| source code revision number:                                  git:964cd58
 CP2K| cp2kflags: omp libint fftw3 libxc elpa parallel scalapack xsmm plumed2 mk
 CP2K|            l
 CP2K| is freely available from                            https://www.cp2k.org/
 CP2K| Program compiled at                          Mon 13 Feb 17:05:14 GMT 2023
 CP2K| Program compiled on                                                  ln01
 CP2K| Program compiled for                                              ARCHER2
 CP2K| Data directory path    /work/e05/e05/cahart/cp2k/cp2k-2023.1/cp2k-2023.1-
 CP2K| Input file name                                                  cp2k.inp

 GLOBAL| Force Environment number                                              1
 GLOBAL| Basis set file name                                        BASIS_MOLOPT
 GLOBAL| Potential file name                                      GTH_POTENTIALS
 GLOBAL| MM Potential file name                                     MM_POTENTIAL
 GLOBAL| Coordinate file name                                      __STD_INPUT__
 GLOBAL| Method name                                                        CP2K
 GLOBAL| Project name                                                    Ni_bulk
 GLOBAL| Run type                                                         ENERGY
 GLOBAL| FFT library                                                       FFTW3
 GLOBAL| Diagonalization library                                            ELPA
 GLOBAL| DGEMM library                                                      BLAS
 GLOBAL| Minimum number of eigenvectors for ELPA usage                        16
 GLOBAL| Orthonormality check for eigenvectors                          DISABLED
 GLOBAL| Matrix multiplication library                                 ScaLAPACK
 GLOBAL| All-to-all communication in single precision                          F
 GLOBAL| FFTs using library dependent lengths                                  F
 GLOBAL| Grid backend                                                       AUTO
 GLOBAL| Global print level                                               MEDIUM
 GLOBAL| MPI I/O enabled                                                       T
 GLOBAL| Total number of message passing processes                           128
 GLOBAL| Number of threads for this process                                    1
 GLOBAL| This output is from process                                           0
 GLOBAL| Stack size for threads created by OpenMP (OMP_STACKSIZE)        default
 GLOBAL| CPU model name                          AMD EPYC 7742 64-Core Processor
 GLOBAL| CPUID                                                              1002

 MEMORY| system memory details [Kb]
 MEMORY|                        rank 0           min           max       average
 MEMORY| MemTotal            263528084     263528084     263528084     263528084
 MEMORY| MemFree             238738512     238738512     238738512     238738512
 MEMORY| Buffers                 24596         24596         24596         24596
 MEMORY| Cached                 734892        734892        734892        734892
 MEMORY| Slab                  1589964       1589964       1589964       1589964
 MEMORY| SReclaimable           106296        106296        106296        106296
 MEMORY| MemLikelyFree       239604296     239604296     239604296     239604296


 *** Fundamental physical constants (SI units) ***

 *** Literature: B. J. Mohr and B. N. Taylor,
 ***             CODATA recommended values of the fundamental physical
 ***             constants: 2006, Web Version 5.1
 ***             http://physics.nist.gov/constants

 Speed of light in vacuum [m/s]                             2.99792458000000E+08
 Magnetic constant or permeability of vacuum [N/A**2]       1.25663706143592E-06
 Electric constant or permittivity of vacuum [F/m]          8.85418781762039E-12
 Planck constant (h) [J*s]                                  6.62606896000000E-34
 Planck constant (h-bar) [J*s]                              1.05457162825177E-34
 Elementary charge [C]                                      1.60217648700000E-19
 Electron mass [kg]                                         9.10938215000000E-31
 Electron g factor [ ]                                     -2.00231930436220E+00
 Proton mass [kg]                                           1.67262163700000E-27
 Fine-structure constant                                    7.29735253760000E-03
 Rydberg constant [1/m]                                     1.09737315685270E+07
 Avogadro constant [1/mol]                                  6.02214179000000E+23
 Boltzmann constant [J/K]                                   1.38065040000000E-23
 Atomic mass unit [kg]                                      1.66053878200000E-27
 Bohr radius [m]                                            5.29177208590000E-11

 *** Conversion factors ***

 [u] -> [a.u.]                                              1.82288848426455E+03
 [Angstrom] -> [Bohr] = [a.u.]                              1.88972613288564E+00
 [a.u.] = [Bohr] -> [Angstrom]                              5.29177208590000E-01
 [a.u.] -> [s]                                              2.41888432650478E-17
 [a.u.] -> [fs]                                             2.41888432650478E-02
 [a.u.] -> [J]                                              4.35974393937059E-18
 [a.u.] -> [N]                                              8.23872205491840E-08
 [a.u.] -> [K]                                              3.15774647902944E+05
 [a.u.] -> [kJ/mol]                                         2.62549961709828E+03
 [a.u.] -> [kcal/mol]                                       6.27509468713739E+02
 [a.u.] -> [Pa]                                             2.94210107994716E+13
 [a.u.] -> [bar]                                            2.94210107994716E+08
 [a.u.] -> [atm]                                            2.90362800883016E+08
 [a.u.] -> [eV]                                             2.72113838565563E+01
 [a.u.] -> [Hz]                                             6.57968392072181E+15
 [a.u.] -> [1/cm] (wave numbers)                            2.19474631370540E+05
 [a.u./Bohr**2] -> [1/cm]                                   5.14048714338585E+03
 

 CELL_TOP| Volume [angstrom^3]:                                       983.249569
 CELL_TOP| Vector a [angstrom     7.012     0.000     0.000   |a| =     7.011596
 CELL_TOP| Vector b [angstrom     0.000     7.012     0.000   |b| =     7.011596
 CELL_TOP| Vector c [angstrom     0.000     0.000    20.000   |c| =    20.000000
 CELL_TOP| Angle (b,c), alpha [degree]:                                90.000000
 CELL_TOP| Angle (a,c), beta  [degree]:                                90.000000
 CELL_TOP| Angle (a,b), gamma [degree]:                                90.000000
 CELL_TOP| Numerically orthorhombic:                                         YES
 CELL_TOP| Periodicity                                                       XYZ

 GENERATE|  Preliminary Number of Bonds generated:                             0
 GENERATE|  Achieved consistency in connectivity generation.

 CELL| Volume [angstrom^3]:                                           983.249569
 CELL| Vector a [angstrom]:       7.012     0.000     0.000   |a| =     7.011596
 CELL| Vector b [angstrom]:       0.000     7.012     0.000   |b| =     7.011596
 CELL| Vector c [angstrom]:       0.000     0.000    20.000   |c| =    20.000000
 CELL| Angle (b,c), alpha [degree]:                                    90.000000
 CELL| Angle (a,c), beta  [degree]:                                    90.000000
 CELL| Angle (a,b), gamma [degree]:                                    90.000000
 CELL| Numerically orthorhombic:                                             YES
 CELL| Periodicity                                                           XYZ

 CELL_REF| Volume [angstrom^3]:                                       983.249569
 CELL_REF| Vector a [angstrom     7.012     0.000     0.000   |a| =     7.011596
 CELL_REF| Vector b [angstrom     0.000     7.012     0.000   |b| =     7.011596
 CELL_REF| Vector c [angstrom     0.000     0.000    20.000   |c| =    20.000000
 CELL_REF| Angle (b,c), alpha [degree]:                                90.000000
 CELL_REF| Angle (a,c), beta  [degree]:                                90.000000
 CELL_REF| Angle (a,b), gamma [degree]:                                90.000000
 CELL_REF| Numerically orthorhombic:                                         YES
 CELL_REF| Periodicity                                                       XYZ

 *** WARNING in cryssym.F:165 :: Symmetry library SPGLIB not available ***


 *******************************************************************************
                                    Kpoints
 *******************************************************************************
 BRILLOUIN| K-point scheme                                        Monkhorst-Pack
 BRILLOUIN| K-Point grid                                             4    4    1
 BRILLOUIN| Accuracy in Symmetry determination                      0.100000E-05
 BRILLOUIN| K-Point point group symmetrization                               OFF
 BRILLOUIN| Wavefunction type                                            COMPLEX
 BRILLOUIN| List of Kpoints [2 Pi/Bohr]                                        8
 BRILLOUIN| Number           Weight            X              Y              Z
 BRILLOUIN|     1           0.12500       -0.37500       -0.37500        0.00000
 BRILLOUIN|     2           0.12500       -0.37500       -0.12500        0.00000
 BRILLOUIN|     3           0.12500       -0.37500        0.12500        0.00000
 BRILLOUIN|     4           0.12500       -0.37500        0.37500        0.00000
 BRILLOUIN|     5           0.12500       -0.12500       -0.37500        0.00000
 BRILLOUIN|     6           0.12500       -0.12500       -0.12500        0.00000
 BRILLOUIN|     7           0.12500       -0.12500        0.12500        0.00000
 BRILLOUIN|     8           0.12500       -0.12500        0.37500        0.00000
 *******************************************************************************

 *******************************************************************************
 *******************************************************************************
 **                                                                           **
 **     #####                         ##              ##                      **
 **    ##   ##            ##          ##              ##                      **
 **   ##     ##                       ##            ######                    **
 **   ##     ##  ##   ##  ##   #####  ##  ##   ####   ##    #####    #####    **
 **   ##     ##  ##   ##  ##  ##      ## ##   ##      ##   ##   ##  ##   ##   **
 **   ##  ## ##  ##   ##  ##  ##      ####     ###    ##   ######   ######    **
 **    ##  ###   ##   ##  ##  ##      ## ##      ##   ##   ##       ##        **
 **     #######   #####   ##   #####  ##  ##  ####    ##    #####   ##        **
 **           ##                                                    ##        **
 **                                                                           **
 **                                                ... make the atoms dance   **
 **                                                                           **
 **            Copyright (C) by CP2K developers group (2000-2023)             **
 **                      J. Chem. Phys. 152, 194103 (2020)                    **
 **                                                                           **
 *******************************************************************************

 *** WARNING in qs_environment.F:1456 :: Number of electrons will be ***
 *** overwritten by NELEC_ALPHA and NELEC_BETA, multiplicity will be ***
 *** ignored.                                                        ***

 Number of electrons should be                                               576
 Sum of NELEC_ALPHA and NELEC_BETA is                                    576.000

 *** WARNING in qs_environment.F:1488 :: NELEC_ALPHA is not an integer, ***
 *** many features will not be supported.                               ***


 *** WARNING in qs_environment.F:1500 :: NELEC_BETA is not an integer, ***
 *** many features will not be supported.                              ***


 *** WARNING in qs_environment.F:1532 :: More ADDED_MOs requested for beta ***
 *** spin than available.                                                  ***


 *** WARNING in qs_environment.F:1548 :: More added MOs requested than     ***
 *** available. The full set of unoccupied MOs will be used. Use           ***
 *** 'ADDED_MOS -1' to always use all available MOs and to get rid of this ***
 *** warning.                                                              ***


 DFT| Spin unrestricted (spin-polarized) Kohn-Sham calculation               UKS
 DFT| Multiplicity                                                             1
 DFT| Number of spin states                                                    2
 DFT| Charge                                                                   0
 DFT| Self-interaction correction (SIC)                                       NO
 DFT| Cutoffs: density                                              1.000000E-10
 DFT|          gradient                                             1.000000E-10
 DFT|          tau                                                  1.000000E-10
 DFT|          cutoff_smoothing_range                               0.000000E+00
 DFT| XC density smoothing                                                  NONE
 DFT| XC derivatives                                                          PW

 FUNCTIONAL| PBE:
 FUNCTIONAL| J.P.Perdew, K.Burke, M.Ernzerhof, Phys. Rev. Letter, vol. 77, n 18,
 FUNCTIONAL|  pp. 3865-3868, (1996){spin polarized}                             

 vdW POTENTIAL|                                                   Pair Potential
 vdW POTENTIAL|          DFT-D3 (Version 3.1)
 vdW POTENTIAL|          Potential Form: S. Grimme et al, JCP 132: 154104 (2010)
 vdW POTENTIAL|          Zero Damping
 vdW POTENTIAL|          Cutoff Radius [Bohr]:                             20.00
 vdW POTENTIAL|          s6 Scaling Factor:                               1.0000
 vdW POTENTIAL|          sr6 Scaling Factor:                              1.2170
 vdW POTENTIAL|          s8 Scaling Factor:                               0.7220
 vdW POTENTIAL|          Cutoff for CN calculation:                   0.1000E-05

 QS| Method:                                                                 GPW
 QS| Density plane wave grid type                        NON-SPHERICAL FULLSPACE
 QS| Number of grid levels:                                                    5
 QS| Density cutoff [a.u.]:                                                300.0
 QS| Multi grid cutoff [a.u.]: 1) grid level                               300.0
 QS|                           2) grid level                               100.0
 QS|                           3) grid level                                33.3
 QS|                           4) grid level                                11.1
 QS|                           5) grid level                                 3.7
 QS| Grid level progression factor:                                          3.0
 QS| Relative density cutoff [a.u.]:                                        30.0
 QS| Interaction thresholds: eps_pgf_orb:                                1.0E-06
 QS|                         eps_filter_matrix:                          0.0E+00
 QS|                         eps_core_charge:                            1.0E-14
 QS|                         eps_rho_gspace:                             1.0E-12
 QS|                         eps_rho_rspace:                             1.0E-12
 QS|                         eps_gvg_rspace:                             1.0E-06
 QS|                         eps_ppl:                                    1.0E-02
 QS|                         eps_ppnl:                                   1.0E-08


 ATOMIC KIND INFORMATION

  1. Atomic kind: Ni_i                                  Number of atoms:      16

     Orbital Basis Set                                        DZVP-MOLOPT-SR-GTH

       Number of orbital shell sets:                                           1
       Number of orbital shells:                                               8
       Number of primitive Cartesian functions:                                6
       Number of Cartesian basis functions:                                   31
       Number of spherical basis functions:                                   26
       Norm type:                                                              2

       Normalised Cartesian orbitals:

                        Set   Shell   Orbital            Exponent    Coefficient

                          1       1    2s               10.077428      -0.684558
                                                         5.847736      -0.844524
                                                         2.494033       1.088856
                                                         0.988355       0.395503
                                                         0.344978       0.010224
                                                         0.099466      -0.003250

                          1       2    3s               10.077428       0.096747
                                                         5.847736       0.162504
                                                         2.494033      -0.297192
                                                         0.988355      -0.319752
                                                         0.344978       0.088318
                                                         0.099466       0.118587

                          1       3    4s               10.077428       0.036437
                                                         5.847736      -0.381480
                                                         2.494033       0.003759
                                                         0.988355      -1.048256
                                                         0.344978       0.855825
                                                         0.099466      -0.176350

                          1       4    3px              10.077428      -3.133913
                                                         5.847736       3.027656
                                                         2.494033       2.353227
                                                         0.988355       0.554184
                                                         0.344978       0.019462
                                                         0.099466      -0.000291
                          1       4    3py              10.077428      -3.133913
                                                         5.847736       3.027656
                                                         2.494033       2.353227
                                                         0.988355       0.554184
                                                         0.344978       0.019462
                                                         0.099466      -0.000291
                          1       4    3pz              10.077428      -3.133913
                                                         5.847736       3.027656
                                                         2.494033       2.353227
                                                         0.988355       0.554184
                                                         0.344978       0.019462
                                                         0.099466      -0.000291

                          1       5    4px              10.077428      -0.112729
                                                         5.847736      -0.114008
                                                         2.494033      -0.347303
                                                         0.988355      -0.110323
                                                         0.344978       0.154096
                                                         0.099466       0.058386
                          1       5    4py              10.077428      -0.112729
                                                         5.847736      -0.114008
                                                         2.494033      -0.347303
                                                         0.988355      -0.110323
                                                         0.344978       0.154096
                                                         0.099466       0.058386
                          1       5    4pz              10.077428      -0.112729
                                                         5.847736      -0.114008
                                                         2.494033      -0.347303
                                                         0.988355      -0.110323
                                                         0.344978       0.154096
                                                         0.099466       0.058386

                          1       6    4dx2             10.077428       8.232726
                                                         5.847736       9.105758
                                                         2.494033       2.849835
                                                         0.988355       0.554319
                                                         0.344978       0.067245
                                                         0.099466       0.001940
                          1       6    4dxy             10.077428      14.259500
                                                         5.847736      15.771636
                                                         2.494033       4.936060
                                                         0.988355       0.960109
                                                         0.344978       0.116472
                                                         0.099466       0.003360
                          1       6    4dxz             10.077428      14.259500
                                                         5.847736      15.771636
                                                         2.494033       4.936060
                                                         0.988355       0.960109
                                                         0.344978       0.116472
                                                         0.099466       0.003360
                          1       6    4dy2             10.077428       8.232726
                                                         5.847736       9.105758
                                                         2.494033       2.849835
                                                         0.988355       0.554319
                                                         0.344978       0.067245
                                                         0.099466       0.001940
                          1       6    4dyz             10.077428      14.259500
                                                         5.847736      15.771636
                                                         2.494033       4.936060
                                                         0.988355       0.960109
                                                         0.344978       0.116472
                                                         0.099466       0.003360
                          1       6    4dz2             10.077428       8.232726
                                                         5.847736       9.105758
                                                         2.494033       2.849835
                                                         0.988355       0.554319
                                                         0.344978       0.067245
                                                         0.099466       0.001940

                          1       7    5dx2             10.077428      -2.715373
                                                         5.847736      -4.020640
                                                         2.494033      -1.397569
                                                         0.988355      -0.076143
                                                         0.344978       0.033435
                                                         0.099466       0.026032
                          1       7    5dxy             10.077428      -4.703164
                                                         5.847736      -6.963952
                                                         2.494033      -2.420661
                                                         0.988355      -0.131883
                                                         0.344978       0.057911
                                                         0.099466       0.045088
                          1       7    5dxz             10.077428      -4.703164
                                                         5.847736      -6.963952
                                                         2.494033      -2.420661
                                                         0.988355      -0.131883
                                                         0.344978       0.057911
                                                         0.099466       0.045088
                          1       7    5dy2             10.077428      -2.715373
                                                         5.847736      -4.020640
                                                         2.494033      -1.397569
                                                         0.988355      -0.076143
                                                         0.344978       0.033435
                                                         0.099466       0.026032
                          1       7    5dyz             10.077428      -4.703164
                                                         5.847736      -6.963952
                                                         2.494033      -2.420661
                                                         0.988355      -0.131883
                                                         0.344978       0.057911
                                                         0.099466       0.045088
                          1       7    5dz2             10.077428      -2.715373
                                                         5.847736      -4.020640
                                                         2.494033      -1.397569
                                                         0.988355      -0.076143
                                                         0.344978       0.033435
                                                         0.099466       0.026032

                          1       8    5fx3             10.077428      -0.467694
                                                         5.847736       0.618100
                                                         2.494033       0.066069
                                                         0.988355       0.262898
                                                         0.344978       0.004720
                                                         0.099466       0.007748
                          1       8    5fx2y            10.077428      -1.045795
                                                         5.847736       1.382114
                                                         2.494033       0.147734
                                                         0.988355       0.587859
                                                         0.344978       0.010555
                                                         0.099466       0.017325
                          1       8    5fx2z            10.077428      -1.045795
                                                         5.847736       1.382114
                                                         2.494033       0.147734
                                                         0.988355       0.587859
                                                         0.344978       0.010555
                                                         0.099466       0.017325
                          1       8    5fxy2            10.077428      -1.045795
                                                         5.847736       1.382114
                                                         2.494033       0.147734
                                                         0.988355       0.587859
                                                         0.344978       0.010555
                                                         0.099466       0.017325
                          1       8    5fxyz            10.077428      -1.811371
                                                         5.847736       2.393892
                                                         2.494033       0.255883
                                                         0.988355       1.018201
                                                         0.344978       0.018282
                                                         0.099466       0.030008
                          1       8    5fxz2            10.077428      -1.045795
                                                         5.847736       1.382114
                                                         2.494033       0.147734
                                                         0.988355       0.587859
                                                         0.344978       0.010555
                                                         0.099466       0.017325
                          1       8    5fy3             10.077428      -0.467694
                                                         5.847736       0.618100
                                                         2.494033       0.066069
                                                         0.988355       0.262898
                                                         0.344978       0.004720
                                                         0.099466       0.007748
                          1       8    5fy2z            10.077428      -1.045795
                                                         5.847736       1.382114
                                                         2.494033       0.147734
                                                         0.988355       0.587859
                                                         0.344978       0.010555
                                                         0.099466       0.017325
                          1       8    5fyz2            10.077428      -1.045795
                                                         5.847736       1.382114
                                                         2.494033       0.147734
                                                         0.988355       0.587859
                                                         0.344978       0.010555
                                                         0.099466       0.017325
                          1       8    5fz3             10.077428      -0.467694
                                                         5.847736       0.618100
                                                         2.494033       0.066069
                                                         0.988355       0.262898
                                                         0.344978       0.004720
                                                         0.099466       0.007748

       Atomic covalent radius [Angstrom]:                                  1.150

       Atomic van der Waals radius [Angstrom]:                             1.630

     GTH Potential information for                                   GTH-PBE-q18

       Description:                       Goedecker-Teter-Hutter pseudopotential
                                           Goedecker et al., PRB 54, 1703 (1996)
                                          Hartwigsen et al., PRB 58, 3641 (1998)
                                                      Krack, TCA 114, 145 (2005)

       Gaussian exponent of the core charge distribution:               4.081633
       Electronic configuration (s p d ...):                           4   6   8

       Parameters of the local part of the GTH pseudopotential:

                          rloc        C1          C2          C3          C4
                        0.350000    2.102166    0.648484

       Parameters of the non-local part of the GTH pseudopotential:

                   l      r(l)      h(i,j,l)

                   0    0.261295    0.622658    9.970227
                                    9.970227  -12.871507
                   1    0.224253  -11.142708   12.429566
                                   12.429566  -14.706861
                   2    0.215348  -12.628146

  2. Atomic kind: Ni_b                                  Number of atoms:      16

     Orbital Basis Set                                        DZVP-MOLOPT-SR-GTH

       Number of orbital shell sets:                                           1
       Number of orbital shells:                                               8
       Number of primitive Cartesian functions:                                6
       Number of Cartesian basis functions:                                   31
       Number of spherical basis functions:                                   26
       Norm type:                                                              2

       Normalised Cartesian orbitals:

                        Set   Shell   Orbital            Exponent    Coefficient

                          1       1    2s               10.077428      -0.684558
                                                         5.847736      -0.844524
                                                         2.494033       1.088856
                                                         0.988355       0.395503
                                                         0.344978       0.010224
                                                         0.099466      -0.003250

                          1       2    3s               10.077428       0.096747
                                                         5.847736       0.162504
                                                         2.494033      -0.297192
                                                         0.988355      -0.319752
                                                         0.344978       0.088318
                                                         0.099466       0.118587

                          1       3    4s               10.077428       0.036437
                                                         5.847736      -0.381480
                                                         2.494033       0.003759
                                                         0.988355      -1.048256
                                                         0.344978       0.855825
                                                         0.099466      -0.176350

                          1       4    3px              10.077428      -3.133913
                                                         5.847736       3.027656
                                                         2.494033       2.353227
                                                         0.988355       0.554184
                                                         0.344978       0.019462
                                                         0.099466      -0.000291
                          1       4    3py              10.077428      -3.133913
                                                         5.847736       3.027656
                                                         2.494033       2.353227
                                                         0.988355       0.554184
                                                         0.344978       0.019462
                                                         0.099466      -0.000291
                          1       4    3pz              10.077428      -3.133913
                                                         5.847736       3.027656
                                                         2.494033       2.353227
                                                         0.988355       0.554184
                                                         0.344978       0.019462
                                                         0.099466      -0.000291

                          1       5    4px              10.077428      -0.112729
                                                         5.847736      -0.114008
                                                         2.494033      -0.347303
                                                         0.988355      -0.110323
                                                         0.344978       0.154096
                                                         0.099466       0.058386
                          1       5    4py              10.077428      -0.112729
                                                         5.847736      -0.114008
                                                         2.494033      -0.347303
                                                         0.988355      -0.110323
                                                         0.344978       0.154096
                                                         0.099466       0.058386
                          1       5    4pz              10.077428      -0.112729
                                                         5.847736      -0.114008
                                                         2.494033      -0.347303
                                                         0.988355      -0.110323
                                                         0.344978       0.154096
                                                         0.099466       0.058386

                          1       6    4dx2             10.077428       8.232726
                                                         5.847736       9.105758
                                                         2.494033       2.849835
                                                         0.988355       0.554319
                                                         0.344978       0.067245
                                                         0.099466       0.001940
                          1       6    4dxy             10.077428      14.259500
                                                         5.847736      15.771636
                                                         2.494033       4.936060
                                                         0.988355       0.960109
                                                         0.344978       0.116472
                                                         0.099466       0.003360
                          1       6    4dxz             10.077428      14.259500
                                                         5.847736      15.771636
                                                         2.494033       4.936060
                                                         0.988355       0.960109
                                                         0.344978       0.116472
                                                         0.099466       0.003360
                          1       6    4dy2             10.077428       8.232726
                                                         5.847736       9.105758
                                                         2.494033       2.849835
                                                         0.988355       0.554319
                                                         0.344978       0.067245
                                                         0.099466       0.001940
                          1       6    4dyz             10.077428      14.259500
                                                         5.847736      15.771636
                                                         2.494033       4.936060
                                                         0.988355       0.960109
                                                         0.344978       0.116472
                                                         0.099466       0.003360
                          1       6    4dz2             10.077428       8.232726
                                                         5.847736       9.105758
                                                         2.494033       2.849835
                                                         0.988355       0.554319
                                                         0.344978       0.067245
                                                         0.099466       0.001940

                          1       7    5dx2             10.077428      -2.715373
                                                         5.847736      -4.020640
                                                         2.494033      -1.397569
                                                         0.988355      -0.076143
                                                         0.344978       0.033435
                                                         0.099466       0.026032
                          1       7    5dxy             10.077428      -4.703164
                                                         5.847736      -6.963952
                                                         2.494033      -2.420661
                                                         0.988355      -0.131883
                                                         0.344978       0.057911
                                                         0.099466       0.045088
                          1       7    5dxz             10.077428      -4.703164
                                                         5.847736      -6.963952
                                                         2.494033      -2.420661
                                                         0.988355      -0.131883
                                                         0.344978       0.057911
                                                         0.099466       0.045088
                          1       7    5dy2             10.077428      -2.715373
                                                         5.847736      -4.020640
                                                         2.494033      -1.397569
                                                         0.988355      -0.076143
                                                         0.344978       0.033435
                                                         0.099466       0.026032
                          1       7    5dyz             10.077428      -4.703164
                                                         5.847736      -6.963952
                                                         2.494033      -2.420661
                                                         0.988355      -0.131883
                                                         0.344978       0.057911
                                                         0.099466       0.045088
                          1       7    5dz2             10.077428      -2.715373
                                                         5.847736      -4.020640
                                                         2.494033      -1.397569
                                                         0.988355      -0.076143
                                                         0.344978       0.033435
                                                         0.099466       0.026032

                          1       8    5fx3             10.077428      -0.467694
                                                         5.847736       0.618100
                                                         2.494033       0.066069
                                                         0.988355       0.262898
                                                         0.344978       0.004720
                                                         0.099466       0.007748
                          1       8    5fx2y            10.077428      -1.045795
                                                         5.847736       1.382114
                                                         2.494033       0.147734
                                                         0.988355       0.587859
                                                         0.344978       0.010555
                                                         0.099466       0.017325
                          1       8    5fx2z            10.077428      -1.045795
                                                         5.847736       1.382114
                                                         2.494033       0.147734
                                                         0.988355       0.587859
                                                         0.344978       0.010555
                                                         0.099466       0.017325
                          1       8    5fxy2            10.077428      -1.045795
                                                         5.847736       1.382114
                                                         2.494033       0.147734
                                                         0.988355       0.587859
                                                         0.344978       0.010555
                                                         0.099466       0.017325
                          1       8    5fxyz            10.077428      -1.811371
                                                         5.847736       2.393892
                                                         2.494033       0.255883
                                                         0.988355       1.018201
                                                         0.344978       0.018282
                                                         0.099466       0.030008
                          1       8    5fxz2            10.077428      -1.045795
                                                         5.847736       1.382114
                                                         2.494033       0.147734
                                                         0.988355       0.587859
                                                         0.344978       0.010555
                                                         0.099466       0.017325
                          1       8    5fy3             10.077428      -0.467694
                                                         5.847736       0.618100
                                                         2.494033       0.066069
                                                         0.988355       0.262898
                                                         0.344978       0.004720
                                                         0.099466       0.007748
                          1       8    5fy2z            10.077428      -1.045795
                                                         5.847736       1.382114
                                                         2.494033       0.147734
                                                         0.988355       0.587859
                                                         0.344978       0.010555
                                                         0.099466       0.017325
                          1       8    5fyz2            10.077428      -1.045795
                                                         5.847736       1.382114
                                                         2.494033       0.147734
                                                         0.988355       0.587859
                                                         0.344978       0.010555
                                                         0.099466       0.017325
                          1       8    5fz3             10.077428      -0.467694
                                                         5.847736       0.618100
                                                         2.494033       0.066069
                                                         0.988355       0.262898
                                                         0.344978       0.004720
                                                         0.099466       0.007748

       Atomic covalent radius [Angstrom]:                                  1.150

       Atomic van der Waals radius [Angstrom]:                             1.630

     GTH Potential information for                                   GTH-PBE-q18

       Description:                       Goedecker-Teter-Hutter pseudopotential
                                           Goedecker et al., PRB 54, 1703 (1996)
                                          Hartwigsen et al., PRB 58, 3641 (1998)
                                                      Krack, TCA 114, 145 (2005)

       Gaussian exponent of the core charge distribution:               4.081633
       Electronic configuration (s p d ...):                           4   6   8

       Parameters of the local part of the GTH pseudopotential:

                          rloc        C1          C2          C3          C4
                        0.350000    2.102166    0.648484

       Parameters of the non-local part of the GTH pseudopotential:

                   l      r(l)      h(i,j,l)

                   0    0.261295    0.622658    9.970227
                                    9.970227  -12.871507
                   1    0.224253  -11.142708   12.429566
                                   12.429566  -14.706861
                   2    0.215348  -12.628146


 MOLECULE KIND INFORMATION


 All atoms are their own molecule, skipping detailed information


 TOTAL NUMBERS AND MAXIMUM NUMBERS

  Total number of            - Atomic kinds:                                   2
                             - Atoms:                                         32
                             - Shell sets:                                    32
                             - Shells:                                       256
                             - Primitive Cartesian functions:                192
                             - Cartesian basis functions:                    992
                             - Spherical basis functions:                    832

  Maximum angular momentum of- Orbital basis functions:                        3
                             - Local part of the GTH pseudopotential:          2
                             - Non-local part of the GTH pseudopotential:      3


 MODULE QUICKSTEP: ATOMIC COORDINATES IN ANGSTROM

   Atom Kind Element         X             Y             Z       Z(eff)     Mass
      1    1 Ni   28      0.876298      0.876298      7.370500  18.0000  58.6934
      2    1 Ni   28      0.876298      4.382298      7.370500  18.0000  58.6934
      3    1 Ni   28      2.629298      2.629298      7.370500  18.0000  58.6934
      4    1 Ni   28      2.629298      6.135298      7.370500  18.0000  58.6934
      5    1 Ni   28      4.382298      0.876298      7.370500  18.0000  58.6934
      6    1 Ni   28      4.382298      4.382298      7.370500  18.0000  58.6934
      7    1 Ni   28      6.135298      2.629298      7.370500  18.0000  58.6934
      8    1 Ni   28      6.135298      6.135298      7.370500  18.0000  58.6934
      9    2 Ni   28      0.876298      2.629298      9.123500  18.0000  58.6934
     10    2 Ni   28      0.876298      6.135298      9.123500  18.0000  58.6934
     11    2 Ni   28      2.629298      0.876298      9.123500  18.0000  58.6934
     12    2 Ni   28      2.629298      4.382298      9.123500  18.0000  58.6934
     13    2 Ni   28      4.382298      2.629298      9.123500  18.0000  58.6934
     14    2 Ni   28      4.382298      6.135298      9.123500  18.0000  58.6934
     15    2 Ni   28      6.135298      0.876298      9.123500  18.0000  58.6934
     16    2 Ni   28      6.135298      4.382298      9.123500  18.0000  58.6934
     17    2 Ni   28      0.876298      0.876298     10.876500  18.0000  58.6934
     18    2 Ni   28      0.876298      4.382298     10.876500  18.0000  58.6934
     19    2 Ni   28      2.629298      2.629298     10.876500  18.0000  58.6934
     20    2 Ni   28      2.629298      6.135298     10.876500  18.0000  58.6934
     21    2 Ni   28      4.382298      0.876298     10.876500  18.0000  58.6934
     22    2 Ni   28      4.382298      4.382298     10.876500  18.0000  58.6934
     23    2 Ni   28      6.135298      2.629298     10.876500  18.0000  58.6934
     24    2 Ni   28      6.135298      6.135298     10.876500  18.0000  58.6934
     25    1 Ni   28      0.876298      2.629298     12.629500  18.0000  58.6934
     26    1 Ni   28      0.876298      6.135298     12.629500  18.0000  58.6934
     27    1 Ni   28      2.629298      0.876298     12.629500  18.0000  58.6934
     28    1 Ni   28      2.629298      4.382298     12.629500  18.0000  58.6934
     29    1 Ni   28      4.382298      2.629298     12.629500  18.0000  58.6934
     30    1 Ni   28      4.382298      6.135298     12.629500  18.0000  58.6934
     31    1 Ni   28      6.135298      0.876298     12.629500  18.0000  58.6934
     32    1 Ni   28      6.135298      4.382298     12.629500  18.0000  58.6934



 SCF PARAMETERS         Density guess:                                    ATOMIC
                        --------------------------------------------------------
                        max_scf:                                             500
                        max_scf_history:                                       0
                        max_diis:                                              4
                        --------------------------------------------------------
                        eps_scf:                                        1.00E-04
                        eps_scf_history:                                0.00E+00
                        eps_diis:                                       1.00E-01
                        eps_eigval:                                     1.00E-05
                        --------------------------------------------------------
                        level_shift [a.u.]:                             0.000000
                        added MOs                                       535  552
                        --------------------------------------------------------
                        Mixing method:                            BROYDEN_MIXING
                                                charge density mixing in g-space
                        --------------------------------------------------------
                        Smear method:                                FERMI_DIRAC
                        Electronic temperature [K]:                       2000.0
                        Electronic temperature [a.u.]:                  6.33E-03
                        Accuracy threshold:                             1.00E-10
                        --------------------------------------------------------
                        No outer SCF

 PW_GRID| Information for grid number                                          1
 PW_GRID| Grid distributed over                                   128 processors
 PW_GRID| Real space group dimensions                                     8   16
 PW_GRID| the grid is blocked:                                               YES
 PW_GRID| Cutoff [a.u.]                                                    300.0
 PW_GRID| spherical cutoff:                                                   NO
 PW_GRID|   Bounds   1            -54      53                Points:         108
 PW_GRID|   Bounds   2            -54      53                Points:         108
 PW_GRID|   Bounds   3           -150     149                Points:         300
 PW_GRID| Volume element (a.u.^3)  0.1896E-02     Volume (a.u.^3)      6635.2971
 PW_GRID| Grid span                                                    FULLSPACE
 PW_GRID|   Distribution                         Average         Max         Min
 PW_GRID|   G-Vectors                            27337.5       28728       25272
 PW_GRID|   G-Rays                                 253.1         266         234
 PW_GRID|   Real Space Points                    27337.5       28728       25272

 PW_GRID| Information for grid number                                          2
 PW_GRID| Number of the reference grid                                         1
 PW_GRID| Grid distributed over                                   128 processors
 PW_GRID| Real space group dimensions                                     8   16
 PW_GRID| the grid is blocked:                                                NO
 PW_GRID| Cutoff [a.u.]                                                    100.0
 PW_GRID| spherical cutoff:                                                   NO
 PW_GRID|   Bounds   1            -30      29                Points:          60
 PW_GRID|   Bounds   2            -30      29                Points:          60
 PW_GRID|   Bounds   3            -90      89                Points:         180
 PW_GRID| Volume element (a.u.^3)  0.1024E-01     Volume (a.u.^3)      6635.2971
 PW_GRID| Grid span                                                    FULLSPACE
 PW_GRID|   Distribution                         Average         Max         Min
 PW_GRID|   G-Vectors                             5062.5       15960           0
 PW_GRID|   G-Rays                                  84.4         266           0
 PW_GRID|   Real Space Points                     5062.5        5760        3780

 PW_GRID| Information for grid number                                          3
 PW_GRID| Number of the reference grid                                         1
 PW_GRID| Grid distributed over                                   128 processors
 PW_GRID| Real space group dimensions                                     8   16
 PW_GRID| the grid is blocked:                                                NO
 PW_GRID| Cutoff [a.u.]                                                     33.3
 PW_GRID| spherical cutoff:                                                   NO
 PW_GRID|   Bounds   1            -18      17                Points:          36
 PW_GRID|   Bounds   2            -18      17                Points:          36
 PW_GRID|   Bounds   3            -50      49                Points:         100
 PW_GRID| Volume element (a.u.^3)  0.5120E-01     Volume (a.u.^3)      6635.2971
 PW_GRID| Grid span                                                    FULLSPACE
 PW_GRID|   Distribution                         Average         Max         Min
 PW_GRID|   G-Vectors                             1012.5        9576           0
 PW_GRID|   G-Rays                                  28.1         266           0
 PW_GRID|   Real Space Points                     1012.5        1500         800

 PW_GRID| Information for grid number                                          4
 PW_GRID| Number of the reference grid                                         1
 PW_GRID| Grid distributed over                                   128 processors
 PW_GRID| Real space group dimensions                                     8   16
 PW_GRID| the grid is blocked:                                                NO
 PW_GRID| Cutoff [a.u.]                                                     11.1
 PW_GRID| spherical cutoff:                                                   NO
 PW_GRID|   Bounds   1            -10       9                Points:          20
 PW_GRID|   Bounds   2            -10       9                Points:          20
 PW_GRID|   Bounds   3            -30      29                Points:          60
 PW_GRID| Volume element (a.u.^3)  0.2765         Volume (a.u.^3)      6635.2971
 PW_GRID| Grid span                                                    FULLSPACE
 PW_GRID|   Distribution                         Average         Max         Min
 PW_GRID|   G-Vectors                              187.5        3800           0
 PW_GRID|   G-Rays                                   9.4         190           0
 PW_GRID|   Real Space Points                      187.5         360         120

 PW_GRID| Information for grid number                                          5
 PW_GRID| Number of the reference grid                                         1
 PW_GRID| Grid distributed over                                   128 processors
 PW_GRID| Real space group dimensions                                     8   16
 PW_GRID| the grid is blocked:                                                NO
 PW_GRID| Cutoff [a.u.]                                                      3.7
 PW_GRID| spherical cutoff:                                                   NO
 PW_GRID|   Bounds   1             -6       5                Points:          12
 PW_GRID|   Bounds   2             -6       5                Points:          12
 PW_GRID|   Bounds   3            -18      17                Points:          36
 PW_GRID| Volume element (a.u.^3)   1.280         Volume (a.u.^3)      6635.2971
 PW_GRID| Grid span                                                    FULLSPACE
 PW_GRID|   Distribution                         Average         Max         Min
 PW_GRID|   G-Vectors                               40.5        1296           0
 PW_GRID|   G-Rays                                   3.4         108           0
 PW_GRID|   Real Space Points                       40.5          72           0

 POISSON| Solver                                                        PERIODIC
 POISSON| Periodicity                                                        XYZ

 RS_GRID| Information for grid number                                          1
 RS_GRID|   Bounds   1            -54      53                Points:         108
 RS_GRID|   Bounds   2            -54      53                Points:         108
 RS_GRID|   Bounds   3           -150     149                Points:         300
 RS_GRID| Real space distribution over                                  8 groups
 RS_GRID| Real space distribution along direction                              2
 RS_GRID| Border size                                                         28
 RS_GRID| Real space distribution over                                 16 groups
 RS_GRID| Real space distribution along direction                              3
 RS_GRID| Border size                                                         28
 RS_GRID|   Distribution                         Average         Max         Min
 RS_GRID|   Planes                                  69.5          70          69
 RS_GRID|   Distribution                         Average         Max         Min
 RS_GRID|   Planes                                  74.8          75          74

 RS_GRID| Information for grid number                                          2
 RS_GRID|   Bounds   1            -30      29                Points:          60
 RS_GRID|   Bounds   2            -30      29                Points:          60
 RS_GRID|   Bounds   3            -90      89                Points:         180
 RS_GRID| Real space fully replicated
 RS_GRID| Group size                                                           1

 RS_GRID| Information for grid number                                          3
 RS_GRID|   Bounds   1            -18      17                Points:          36
 RS_GRID|   Bounds   2            -18      17                Points:          36
 RS_GRID|   Bounds   3            -50      49                Points:         100
 RS_GRID| Real space fully replicated
 RS_GRID| Group size                                                           1

 RS_GRID| Information for grid number                                          4
 RS_GRID|   Bounds   1            -10       9                Points:          20
 RS_GRID|   Bounds   2            -10       9                Points:          20
 RS_GRID|   Bounds   3            -30      29                Points:          60
 RS_GRID| Real space fully replicated
 RS_GRID| Group size                                                           1

 RS_GRID| Information for grid number                                          5
 RS_GRID|   Bounds   1             -6       5                Points:          12
 RS_GRID|   Bounds   2             -6       5                Points:          12
 RS_GRID|   Bounds   3            -18      17                Points:          36
 RS_GRID| Real space fully replicated
 RS_GRID| Group size                                                           1

 Spin 1

 Number of electrons:                                                        296.960
 Number of occupied orbitals:                                                297
 Number of molecular orbitals:                                               832

 Spin 2

 Number of electrons:                                                        279.040
 Number of occupied orbitals:                                                280
 Number of molecular orbitals:                                               832

 Number of orbital functions:                                                832
 Number of independent orbital functions:                                    832

 Extrapolation method: initial_guess

 Atomic guess: The first density matrix is obtained in terms of atomic orbitals
               and electronic configurations assigned to each atomic kind

 Guess for atomic kind: Ni_i

 Electronic structure
    Total number of core electrons                                         10.00
    Total number of valence electrons                                      18.00
    Total number of electrons                                              28.00
    Multiplicity                                                         doublet
    Alpha Electrons
    S   [  1.00  1.00] 1.00  1.00
    P   [  3.00] 3.00
    D      4.35
    Beta Electrons
    S   [  1.00  1.00] 1.00  1.00
    P   [  3.00] 3.00
    D      3.65


 *******************************************************************************
                  Iteration          Convergence                     Energy [au]
 *******************************************************************************
                          1         1.51729                    -167.067424631347
                          2         15.3902                    -156.642654318634
                          3         2.33433                    -168.319355313541
                          4        0.206730                    -168.609905008081
                          5        0.814175E-01                -168.612873080494
                          6        0.173318E-01                -168.613470181066
                          7        0.290432E-02                -168.613543571401
                          8        0.311825E-02                -168.613543401474
                          9        0.179670E-03                -168.613544404477
                         10        0.169386E-02                -168.613544207811
                         11        0.473341E-03                -168.613544360253
                         12        0.165417E-03                -168.613544400419
                         13        0.162622E-03                -168.613544401489
                         14        0.158325E-03                -168.613544403900
                         15        0.177007E-03                -168.613544402509
                         16        0.138916E-03                -168.613544404900
                         17        0.934549E-04                -168.613544406149
                         18        0.119916E-03                -168.613544405789
                         19        0.131607E-03                -168.613544405591
                         20        0.169309E-03                -168.613544404773
                         21        0.551337E-04                -168.613544406656
                         22        0.382664E-04                -168.613544406759
                         23        0.378942E-04                -168.613544406765
                         24        0.381089E-04                -168.613544406765
                         25        0.390835E-04                -168.613544406759
                         26        0.308614E-04                -168.613544406841
                         27        0.205044E-04                -168.613544406892
                         28        0.200942E-04                -168.613544406893
                         29        0.199375E-04                -168.613544406893
                         30        0.200198E-04                -168.613544406894
                         31        0.161325E-04                -168.613544406903
                         32        0.330614E-05                -168.613544406925
                         33        0.238713E-05                -168.613544406926
                         34        0.265439E-05                -168.613544406926
                         35        0.277073E-05                -168.613544406926
                         36        0.335175E-05                -168.613544406926
                         37        0.148809E-05                -168.613544406927
                         38        0.133447E-05                -168.613544406927
                         39        0.918735E-06                -168.613544406927

 Energy components [Hartree]           Total Energy ::         -168.613544406927
                                        Band Energy ::          -26.569761966525
                                     Kinetic Energy ::           97.306723392622
                                   Potential Energy ::         -265.920267799548
                                      Virial (-V/T) ::            2.732804666812
                                        Core Energy ::         -299.567979157577
                                          XC Energy ::          -16.227189041387
                                     Coulomb Energy ::          147.181623792037
                       Total Pseudopotential Energy ::         -396.961043505191
                       Local Pseudopotential Energy ::         -362.648291121960
                    Nonlocal Pseudopotential Energy ::          -34.312752383230
                                        Confinement ::            0.863409549921

 Orbital energies  State     Spin  L     Occupation   Energy[a.u.]    Energy[eV]

                       1    alpha  0          1.000      -4.172666   -113.544030
                       2    alpha  0          1.000      -0.181431     -4.936983
                       1     beta  0          1.000      -4.140640   -112.672541
                       2     beta  0          1.000      -0.176372     -4.799339

                       1    alpha  1          3.000      -2.578739    -70.171064
                       1     beta  1          3.000      -2.547579    -69.323162

                       1    alpha  2          4.350      -0.327039     -8.899191
                       1     beta  2          3.650      -0.300569     -8.178887


 Total Electron Density at R=0:                                         0.030422

 Guess for atomic kind: Ni_b

 Electronic structure
    Total number of core electrons                                         10.00
    Total number of valence electrons                                      18.00
    Total number of electrons                                              28.00
    Multiplicity                                                         singlet
    Alpha Electrons
    S   [  1.00  1.00] 1.00  1.00
    P   [  3.00] 3.00
    D      4.21
    Beta Electrons
    S   [  1.00  1.00] 1.00  1.00
    P   [  3.00] 3.00
    D      3.79


 *******************************************************************************
                  Iteration          Convergence                     Energy [au]
 *******************************************************************************
                          1         1.51669                    -167.064273181618
                          2         14.8176                    -156.613611054160
                          3         2.22403                    -168.316681634815
                          4        0.182027                    -168.607319475213
                          5        0.664876E-01                -168.610129603097
                          6        0.107057E-01                -168.610553418471
                          7        0.704739E-02                -168.610575285282
                          8        0.583044E-02                -168.610576111366
                          9        0.114340E-02                -168.610579450866
                         10        0.267788E-02                -168.610579045091
                         11        0.918378E-03                -168.610579514000
                         12        0.161217E-03                -168.610579618273
                         13        0.111195E-03                -168.610579617964
                         14        0.943797E-04                -168.610579619464
                         15        0.149057E-03                -168.610579616374
                         16        0.236413E-04                -168.610579620183
                         17        0.287836E-04                -168.610579620103
                         18        0.372318E-04                -168.610579620167
                         19        0.242156E-04                -168.610579620220
                         20        0.406601E-04                -168.610579620136
                         21        0.954165E-05                -168.610579620257
                         22        0.781907E-05                -168.610579620260
                         23        0.619053E-05                -168.610579620263
                         24        0.713374E-05                -168.610579620262
                         25        0.937306E-05                -168.610579620259
                         26        0.141389E-05                -168.610579620268
                         27        0.361882E-06                -168.610579620268

 Energy components [Hartree]           Total Energy ::         -168.610579620268
                                        Band Energy ::          -26.568345758080
                                     Kinetic Energy ::           97.302719186897
                                   Potential Energy ::         -265.913298807165
                                      Virial (-V/T) ::            2.732845505544
                                        Core Energy ::         -299.565639982305
                                          XC Energy ::          -16.223796623679
                                     Coulomb Energy ::          147.178856985716
                       Total Pseudopotential Energy ::         -396.954699680078
                       Local Pseudopotential Energy ::         -362.644046490013
                    Nonlocal Pseudopotential Energy ::          -34.310653190065
                                        Confinement ::            0.863405108764

 Orbital energies  State     Spin  L     Occupation   Energy[a.u.]    Energy[eV]

                       1    alpha  0          1.000      -4.166580   -113.378410
                       2    alpha  0          1.000      -0.180447     -4.910222
                       1     beta  0          1.000      -4.147364   -112.855515
                       2     beta  0          1.000      -0.177413     -4.827653

                       1    alpha  1          3.000      -2.572817    -70.009913
                       1     beta  1          3.000      -2.554121    -69.501173

                       1    alpha  2          4.210      -0.321991     -8.761807
                       1     beta  2          3.790      -0.306107     -8.329602


 Total Electron Density at R=0:                                         0.030431

 Spin 1
 Re-scaling the density matrix to get the right number of electrons for spin 1
                  # Electrons              Trace(P)               Scaling factor
                        296.960             296.960                        1.000

 Spin 2
 Re-scaling the density matrix to get the right number of electrons for spin 2
                  # Electrons              Trace(P)               Scaling factor
                        279.040             279.040                        1.000


 SCF WAVEFUNCTION OPTIMIZATION

  Step     Update method      Time    Convergence         Total energy    Change
  ------------------------------------------------------------------------------
     1 NoMix/Diag. 0.80E-01    1.5     0.87323028     -5426.4329630633 -5.43E+03
[...]
   117 Broy./Diag. 0.80E-01    1.5     0.08914006     -5419.0903793885 -1.41E+00
   118 Broy./Diag. 0.80E-01    1.5     0.03104853     -5420.9068897429 -1.82E+00
   119 Broy./Diag. 0.80E-01    1.5     0.01422467     -5420.5334364504  3.73E-01
   120 Broy./Diag. 0.80E-01    1.5     0.00750400     -5418.8405757316  1.69E+00
   121 Broy./Diag. 0.80E-01    1.5     0.03507999     -5420.0933752580 -1.25E+00
   122 Broy./Diag. 0.80E-01    1.5     0.01363552     -5418.6478210260  1.45E+00
   123 Broy./Diag. 0.80E-01    1.5     0.02988795     -5418.4112813203  2.37E-01
   124 Broy./Diag. 0.80E-01    1.5     0.00868440     -5420.0331437225 -1.62E+00
   125 Broy./Diag. 0.80E-01    1.5     0.01810034     -5419.9024986625  1.31E-01
   126 Broy./Diag. 0.80E-01    1.5     0.00951732     -5418.1706068960  1.73E+00
   127 Broy./Diag. 0.80E-01    1.5     0.03334776     -5418.0373111661  1.33E-01
   128 Broy./Diag. 0.80E-01    1.5     0.03087243     -5418.6015464520 -5.64E-01
   129 Broy./Diag. 0.80E-01    1.5     0.00918246     -5418.2607221436  3.41E-01
   130 Broy./Diag. 0.80E-01    1.5     0.00785155     -5418.8620095977 -6.01E-01
   131 Broy./Diag. 0.80E-01    1.5     0.02007707     -5419.1420219721 -2.80E-01
   132 Broy./Diag. 0.80E-01    1.5     0.00828884     -5418.9496584731  1.92E-01
   133 Broy./Diag. 0.80E-01    1.5     0.00864056     -5418.7873831764  1.62E-01
   134 Broy./Diag. 0.80E-01    1.5     0.00847018     -5418.9483024835 -1.61E-01
   135 Broy./Diag. 0.80E-01    1.5     0.00777023     -5418.6896185403  2.59E-01
   136 Broy./Diag. 0.80E-01    1.5     0.01363612     -5418.6114200420  7.82E-02
   137 Broy./Diag. 0.80E-01    1.5     0.00730057     -5418.0018570600  6.10E-01
   138 Broy./Diag. 0.80E-01    1.5     0.00958640     -5417.6540796883  3.48E-01
   139 Broy./Diag. 0.80E-01    1.5     0.01172594     -5417.4046243721  2.49E-01
   140 Broy./Diag. 0.80E-01    1.5     0.02603679     -5417.9086871794 -5.04E-01
   141 Broy./Diag. 0.80E-01    1.5     0.01029913     -5418.7069357074 -7.98E-01
   142 Broy./Diag. 0.80E-01    1.5     0.00530646     -5418.7063657208  5.70E-04
   143 Broy./Diag. 0.80E-01    1.5     0.00273937     -5419.0409290613 -3.35E-01
   144 Broy./Diag. 0.80E-01    1.5     0.01685165     -5418.7481678670  2.93E-01
   145 Broy./Diag. 0.80E-01    1.5     0.02644304     -5419.2832047654 -5.35E-01
   146 Broy./Diag. 0.80E-01    1.5     0.04850105     -5418.9743361451  3.09E-01
   147 Broy./Diag. 0.80E-01    1.5     0.00554178     -5418.9078600729  6.65E-02
   148 Broy./Diag. 0.80E-01    1.5     0.00953282     -5418.6722762935  2.36E-01
   149 Broy./Diag. 0.80E-01    1.5     0.01369974     -5418.4910651509  1.81E-01
   150 Broy./Diag. 0.80E-01    1.5     0.01808203     -5418.3849633398  1.06E-01
   151 Broy./Diag. 0.80E-01    1.5     0.03202136     -5418.2957752129  8.92E-02
   152 Broy./Diag. 0.80E-01    1.5     0.02941945     -5418.1397247213  1.56E-01
   153 Broy./Diag. 0.80E-01    1.5     0.01070250     -5418.1838210982 -4.41E-02
   154 Broy./Diag. 0.80E-01    1.5     0.01414244     -5418.0198210075  1.64E-01
   155 Broy./Diag. 0.80E-01    1.5     0.01499614     -5418.1005201482 -8.07E-02
   156 Broy./Diag. 0.80E-01    1.5     0.01735625     -5418.3337822536 -2.33E-01
   157 Broy./Diag. 0.80E-01    1.5     0.00772545     -5418.5402656584 -2.06E-01
   158 Broy./Diag. 0.80E-01    1.5     0.02944801     -5417.9963331171  5.44E-01
   159 Broy./Diag. 0.80E-01    1.5     0.03994339     -5418.9018641263 -9.06E-01
   160 Broy./Diag. 0.80E-01    1.5     0.02456528     -5419.5110856231 -6.09E-01
   161 Broy./Diag. 0.80E-01    1.5     0.02500212     -5419.1281344976  3.83E-01
   162 Broy./Diag. 0.80E-01    1.5     0.02709999     -5418.8864083815  2.42E-01
   163 Broy./Diag. 0.80E-01    1.5     0.01144770     -5419.4067744789 -5.20E-01
   164 Broy./Diag. 0.80E-01    1.5     0.00782548     -5419.3870320294  1.97E-02
   165 Broy./Diag. 0.80E-01    1.5     0.01361845     -5419.1822972501  2.05E-01
   166 Broy./Diag. 0.80E-01    1.5     0.03185443     -5418.9525916778  2.30E-01
   167 Broy./Diag. 0.80E-01    1.5     0.04107898     -5417.9713909689  9.81E-01
   168 Broy./Diag. 0.80E-01    1.5     0.03242677     -5418.3247425290 -3.53E-01
   169 Broy./Diag. 0.80E-01    1.5     0.01909382     -5416.8974691129  1.43E+00
   170 Broy./Diag. 0.80E-01    1.5     0.00881297     -5417.5097836132 -6.12E-01
   171 Broy./Diag. 0.80E-01    1.5     0.00991839     -5417.2873738534  2.22E-01
   172 Broy./Diag. 0.80E-01    1.5     0.05958809     -5416.8745127532  4.13E-01
   173 Broy./Diag. 0.80E-01    1.5     0.02182716     -5418.2663489593 -1.39E+00
   174 Broy./Diag. 0.80E-01    1.5     0.04724206     -5418.2333207007  3.30E-02
   175 Broy./Diag. 0.80E-01    1.5     0.07955540     -5418.1462118213  8.71E-02
   176 Broy./Diag. 0.80E-01    1.5     0.02620041     -5414.3264340929  3.82E+00
   177 Broy./Diag. 0.80E-01    1.5     0.04619532     -5416.9277273515 -2.60E+00
   178 Broy./Diag. 0.80E-01    1.5     0.01082616     -5415.3866489985  1.54E+00
   179 Broy./Diag. 0.80E-01    1.5     0.01491127     -5416.2839706635 -8.97E-01
   180 Broy./Diag. 0.80E-01    1.5     0.02576590     -5418.3825990541 -2.10E+00
   181 Broy./Diag. 0.80E-01    1.5     0.04208762     -5419.1113111174 -7.29E-01
   182 Broy./Diag. 0.80E-01    1.5     0.01071838     -5419.3213620327 -2.10E-01
   183 Broy./Diag. 0.80E-01    1.5     0.00679952     -5419.1296335001  1.92E-01
   184 Broy./Diag. 0.80E-01    1.5     0.02277068     -5419.1907628640 -6.11E-02
   185 Broy./Diag. 0.80E-01    1.5     0.02187724     -5418.5217882879  6.69E-01
   186 Broy./Diag. 0.80E-01    1.5     0.03328805     -5419.5167933219 -9.95E-01
   187 Broy./Diag. 0.80E-01    1.5     0.00911485     -5418.8372982745  6.79E-01
   188 Broy./Diag. 0.80E-01    1.5     0.02838220     -5418.4796334813  3.58E-01
   189 Broy./Diag. 0.80E-01    1.5     0.03960047     -5419.5227565142 -1.04E+00
   190 Broy./Diag. 0.80E-01    1.5     0.01686352     -5420.1211610892 -5.98E-01
   191 Broy./Diag. 0.80E-01    1.5     0.01600573     -5420.4217550927 -3.01E-01
   192 Broy./Diag. 0.80E-01    1.5     0.00443467     -5420.2396573278  1.82E-01
   193 Broy./Diag. 0.80E-01    1.5     0.01295554     -5420.0413363453  1.98E-01
   194 Broy./Diag. 0.80E-01    1.5     0.01995515     -5418.5937216432  1.45E+00
   195 Broy./Diag. 0.80E-01    1.5     0.07558700     -5419.6294856968 -1.04E+00
   196 Broy./Diag. 0.80E-01    1.5     0.00931042     -5415.9554109545  3.67E+00
   197 Broy./Diag. 0.80E-01    1.5     0.00946782     -5416.6743707346 -7.19E-01
   198 Broy./Diag. 0.80E-01    1.5     0.00748070     -5416.3925702963  2.82E-01
   199 Broy./Diag. 0.80E-01    1.5     0.01033430     -5417.5001133499 -1.11E+00
   200 Broy./Diag. 0.80E-01    1.5     0.03097312     -5416.7152620249  7.85E-01
   201 Broy./Diag. 0.80E-01    1.5     0.00657330     -5416.0030772545  7.12E-01
   202 Broy./Diag. 0.80E-01    1.5     0.03134003     -5416.8448304109 -8.42E-01
   203 Broy./Diag. 0.80E-01    1.5     0.01298818     -5414.8016903097  2.04E+00
   204 Broy./Diag. 0.80E-01    1.5     0.02171410     -5416.3908086866 -1.59E+00
   205 Broy./Diag. 0.80E-01    1.5     0.04841360     -5417.5480172352 -1.16E+00
   206 Broy./Diag. 0.80E-01    1.5     0.04167679     -5416.6777054789  8.70E-01
   207 Broy./Diag. 0.80E-01    1.5     0.02206748     -5414.9359326998  1.74E+00
   208 Broy./Diag. 0.80E-01    1.5     0.02597021     -5415.9346986014 -9.99E-01
   209 Broy./Diag. 0.80E-01    1.5     0.07360475     -5413.5040617598  2.43E+00
   210 Broy./Diag. 0.80E-01    1.5     0.00945095     -5414.7158702722 -1.21E+00
   211 Broy./Diag. 0.80E-01    1.5     0.03935754     -5414.7403653103 -2.45E-02
   212 Broy./Diag. 0.80E-01    1.5     0.04032759     -5415.7592135328 -1.02E+00
   213 Broy./Diag. 0.80E-01    1.5     0.02062972     -5415.2991940790  4.60E-01
   214 Broy./Diag. 0.80E-01    1.5     0.04370194     -5414.0831616310  1.22E+00
   215 Broy./Diag. 0.80E-01    1.5     0.04843296     -5413.3203164603  7.63E-01
   216 Broy./Diag. 0.80E-01    1.5     0.01129929     -5413.8381524581 -5.18E-01
   217 Broy./Diag. 0.80E-01    1.5     0.02114096     -5414.3210147440 -4.83E-01
   218 Broy./Diag. 0.80E-01    1.5     0.02490505     -5413.7346312158  5.86E-01
   219 Broy./Diag. 0.80E-01    1.5     0.07362352     -5413.4658570556  2.69E-01
   220 Broy./Diag. 0.80E-01    1.5     0.06691099     -5413.4726731664 -6.82E-03
   221 Broy./Diag. 0.80E-01    1.5     0.01596274     -5413.5111821270 -3.85E-02
   222 Broy./Diag. 0.80E-01    1.5     0.05045039     -5414.3922809584 -8.81E-01
   223 Broy./Diag. 0.80E-01    1.5     0.02857617     -5410.0786494973  4.31E+00
   224 Broy./Diag. 0.80E-01    1.5     0.06795955     -5413.9948661394 -3.92E+00
   225 Broy./Diag. 0.80E-01    1.5     0.02578503     -5417.1157906325 -3.12E+00
   226 Broy./Diag. 0.80E-01    1.5     0.02688006     -5418.1360193124 -1.02E+00
   227 Broy./Diag. 0.80E-01    1.5     0.00772798     -5416.7549808480  1.38E+00
   228 Broy./Diag. 0.80E-01    1.5     0.01256915     -5416.0362586276  7.19E-01
   229 Broy./Diag. 0.80E-01    1.5     0.04774042     -5416.5850394229 -5.49E-01
   230 Broy./Diag. 0.80E-01    1.5     0.11741520     -5418.2688169067 -1.68E+00
   231 Broy./Diag. 0.80E-01    1.5     0.07620164     -5417.0421631532  1.23E+00
   232 Broy./Diag. 0.80E-01    1.5     0.01752806     -5418.4861806918 -1.44E+00
   233 Broy./Diag. 0.80E-01    1.5     0.01365112     -5417.8381946352  6.48E-01
   234 Broy./Diag. 0.80E-01    1.5     0.02913663     -5417.2010701247  6.37E-01
   235 Broy./Diag. 0.80E-01    1.5     0.04695866     -5416.3719440598  8.29E-01
   236 Broy./Diag. 0.80E-01    1.5     0.08091665     -5417.4061045661 -1.03E+00
   237 Broy./Diag. 0.80E-01    1.5     0.02489316     -5415.5555287378  1.85E+00
   238 Broy./Diag. 0.80E-01    1.5     0.01018838     -5414.9309465618  6.25E-01
   239 Broy./Diag. 0.80E-01    1.5     0.14927110     -5414.9255252941  5.42E-03
   240 Broy./Diag. 0.80E-01    1.5     0.03375742     -5415.3376358500 -4.12E-01
   241 Broy./Diag. 0.80E-01    1.5     0.01608224     -5415.0980731423  2.40E-01
   242 Broy./Diag. 0.80E-01    1.5     0.01655238     -5415.3705731467 -2.73E-01
   243 Broy./Diag. 0.80E-01    1.5     0.04441142     -5416.4061472721 -1.04E+00
   244 Broy./Diag. 0.80E-01    1.5     0.04763887     -5417.4080395936 -1.00E+00
   245 Broy./Diag. 0.80E-01    1.5     0.01022248     -5419.0713497228 -1.66E+00
   246 Broy./Diag. 0.80E-01    1.5     0.12141302     -5416.7805518421  2.29E+00
   247 Broy./Diag. 0.80E-01    1.5     0.02950702     -5415.5968782141  1.18E+00
   248 Broy./Diag. 0.80E-01    1.5     0.01182858     -5416.3527409655 -7.56E-01
   249 Broy./Diag. 0.80E-01    1.5     0.08093906     -5416.1892912053  1.63E-01
   250 Broy./Diag. 0.80E-01    1.5     0.06875154     -5416.1494822498  3.98E-02
   251 Broy./Diag. 0.80E-01    1.5     0.08152809     -5415.9930612390  1.56E-01
   252 Broy./Diag. 0.80E-01    1.5     0.16150489     -5416.4900559067 -4.97E-01
   253 Broy./Diag. 0.80E-01    1.5     0.03818366     -5416.2111357212  2.79E-01
   254 Broy./Diag. 0.80E-01    1.5     0.05979568     -5417.3149293863 -1.10E+00
   255 Broy./Diag. 0.80E-01    1.5     0.04681823     -5415.9597807988  1.36E+00
   256 Broy./Diag. 0.80E-01    1.5     0.02730668     -5416.5302346719 -5.70E-01
   257 Broy./Diag. 0.80E-01    1.5     0.03384644     -5416.5732392351 -4.30E-02
   258 Broy./Diag. 0.80E-01    1.5     0.06117601     -5415.5750550127  9.98E-01
   259 Broy./Diag. 0.80E-01    1.5     0.01616049     -5416.1632682982 -5.88E-01
   260 Broy./Diag. 0.80E-01    1.5     0.15421900     -5414.6970463155  1.47E+00
   261 Broy./Diag. 0.80E-01    1.5     0.07052421     -5417.2624104220 -2.57E+00
   262 Broy./Diag. 0.80E-01    1.5     0.02569674     -5417.7444418838 -4.82E-01
   263 Broy./Diag. 0.80E-01    1.5     0.04678452     -5418.1568115056 -4.12E-01
   264 Broy./Diag. 0.80E-01    1.5     0.09998485     -5418.4860985796 -3.29E-01
   265 Broy./Diag. 0.80E-01    1.5     0.02754633     -5417.6776621166  8.08E-01
   266 Broy./Diag. 0.80E-01    1.5     0.00776776     -5417.8161615064 -1.38E-01
   267 Broy./Diag. 0.80E-01    1.5     0.03703896     -5417.7321332743  8.40E-02
   268 Broy./Diag. 0.80E-01    1.5     0.01329959     -5415.8010710814  1.93E+00
   269 Broy./Diag. 0.80E-01    1.5     0.04003200     -5416.5239733060 -7.23E-01
   270 Broy./Diag. 0.80E-01    1.5     0.05261120     -5416.0427839030  4.81E-01
   271 Broy./Diag. 0.80E-01    1.5     0.01362075     -5415.1798279986  8.63E-01
   272 Broy./Diag. 0.80E-01    1.5     0.02662651     -5414.6708024857  5.09E-01
   273 Broy./Diag. 0.80E-01    1.5     0.07192553     -5414.2898027141  3.81E-01
   274 Broy./Diag. 0.80E-01    1.5     0.00838173     -5417.2471502322 -2.96E+00
   275 Broy./Diag. 0.80E-01    1.5     0.03069066     -5418.6878633160 -1.44E+00
   276 Broy./Diag. 0.80E-01    1.5     0.06115746     -5419.4277611686 -7.40E-01
   277 Broy./Diag. 0.80E-01    1.5     0.01617402     -5417.2324755274  2.20E+00
   278 Broy./Diag. 0.80E-01    1.5     0.07214267     -5416.1833868702  1.05E+00
   279 Broy./Diag. 0.80E-01    1.5     0.08467811     -5415.5202371371  6.63E-01
   280 Broy./Diag. 0.80E-01    1.5     0.02358149     -5415.9286444929 -4.08E-01
   281 Broy./Diag. 0.80E-01    1.5     0.01790063     -5413.9696775138  1.96E+00
   282 Broy./Diag. 0.80E-01    1.5     0.02293723     -5414.4151602575 -4.45E-01
   283 Broy./Diag. 0.80E-01    1.5     0.01439329     -5415.0747937757 -6.60E-01
   284 Broy./Diag. 0.80E-01    1.5     0.00753726     -5417.5431167343 -2.47E+00
   285 Broy./Diag. 0.80E-01    1.5     0.01847605     -5418.3804832054 -8.37E-01
   286 Broy./Diag. 0.80E-01    1.5     0.01995347     -5418.3256591950  5.48E-02
   287 Broy./Diag. 0.80E-01    1.5     0.01051416     -5418.0100868157  3.16E-01
   288 Broy./Diag. 0.80E-01    1.5     0.00254448     -5417.6029605799  4.07E-01
   289 Broy./Diag. 0.80E-01    1.5     0.01381131     -5417.8253050647 -2.22E-01
   290 Broy./Diag. 0.80E-01    1.5     0.03313127     -5417.8351925797 -9.89E-03
   291 Broy./Diag. 0.80E-01    1.5     0.02993132     -5417.6356383154  2.00E-01
   292 Broy./Diag. 0.80E-01    1.5     0.03409824     -5417.6655558612 -2.99E-02
   293 Broy./Diag. 0.80E-01    1.5     0.01232539     -5417.6270825499  3.85E-02
   294 Broy./Diag. 0.80E-01    1.5     0.04969243     -5417.6718544164 -4.48E-02
   295 Broy./Diag. 0.80E-01    1.5     0.01913182     -5417.7817677319 -1.10E-01
   296 Broy./Diag. 0.80E-01    1.5     0.02555171     -5417.7400578621  4.17E-02
   297 Broy./Diag. 0.80E-01    1.5     0.04268197     -5417.4663846845  2.74E-01
   298 Broy./Diag. 0.80E-01    1.5     0.13603276     -5417.6981124538 -2.32E-01
   299 Broy./Diag. 0.80E-01    1.5     0.04569914     -5417.9317027250 -2.34E-01
   300 Broy./Diag. 0.80E-01    1.5     0.02024228     -5417.6544951597  2.77E-01
   301 Broy./Diag. 0.80E-01    1.5     0.07624323     -5417.6625584108 -8.06E-03
   302 Broy./Diag. 0.80E-01    1.5     0.04289178     -5417.7716037118 -1.09E-01
   303 Broy./Diag. 0.80E-01    1.5     0.02755125     -5417.7591627191  1.24E-02
   304 Broy./Diag. 0.80E-01    1.5     0.04785528     -5415.9097610738  1.85E+00
   305 Broy./Diag. 0.80E-01    1.5     0.03916342     -5415.9329986534 -2.32E-02
   306 Broy./Diag. 0.80E-01    1.5     0.08927558     -5413.0539180005  2.88E+00
   307 Broy./Diag. 0.80E-01    1.5     0.01211308     -5413.5696704634 -5.16E-01
   308 Broy./Diag. 0.80E-01    1.5     0.05347306     -5413.2115385348  3.58E-01
   309 Broy./Diag. 0.80E-01    1.5     0.06540295     -5413.5345895735 -3.23E-01
   310 Broy./Diag. 0.80E-01    1.5     0.13889154     -5413.6316026585 -9.70E-02
   311 Broy./Diag. 0.80E-01    1.5     0.10430251     -5416.0752672175 -2.44E+00
   312 Broy./Diag. 0.80E-01    1.5     0.09012823     -5417.5406794515 -1.47E+00
   313 Broy./Diag. 0.80E-01    1.5     0.09497015     -5416.3540409772  1.19E+00
   314 Broy./Diag. 0.80E-01    1.5     0.11591784     -5415.2709133485  1.08E+00
   315 Broy./Diag. 0.80E-01    1.5     0.14155090     -5416.8013472595 -1.53E+00
   316 Broy./Diag. 0.80E-01    1.5     0.05158706     -5415.5205998822  1.28E+00
   317 Broy./Diag. 0.80E-01    1.5     0.05926985     -5416.3963281280 -8.76E-01
   318 Broy./Diag. 0.80E-01    1.5     0.06196321     -5416.3859068287  1.04E-02
   319 Broy./Diag. 0.80E-01    1.5     0.08830666     -5417.6353828878 -1.25E+00
   320 Broy./Diag. 0.80E-01    1.5     0.03156266     -5418.3374981990 -7.02E-01
   321 Broy./Diag. 0.80E-01    1.5     0.14710964     -5418.0308216249  3.07E-01
   322 Broy./Diag. 0.80E-01    1.5     0.07355217     -5415.1986360129  2.83E+00
   323 Broy./Diag. 0.80E-01    1.5     0.03519978     -5416.7490483750 -1.55E+00
   324 Broy./Diag. 0.80E-01    1.5     0.07948844     -5416.4724606886  2.77E-01
   325 Broy./Diag. 0.80E-01    1.5     0.04246077     -5415.7500338009  7.22E-01
   326 Broy./Diag. 0.80E-01    1.5     0.12631428     -5416.0552822832 -3.05E-01
   327 Broy./Diag. 0.80E-01    1.5     0.18997121     -5417.0534006214 -9.98E-01
   328 Broy./Diag. 0.80E-01    1.5     0.03124201     -5417.4680025906 -4.15E-01
   329 Broy./Diag. 0.80E-01    1.5     0.08369252     -5417.3667239030  1.01E-01
   330 Broy./Diag. 0.80E-01    1.5     0.24124820     -5414.3003829518  3.07E+00
   331 Broy./Diag. 0.80E-01    1.5     0.12095162     -5416.9557134807 -2.66E+00
   332 Broy./Diag. 0.80E-01    1.5     0.13887799     -5414.6437276553  2.31E+00
   333 Broy./Diag. 0.80E-01    1.5     0.15612147     -5417.3280550590 -2.68E+00
   334 Broy./Diag. 0.80E-01    1.5     0.02282916     -5417.1111466488  2.17E-01
   335 Broy./Diag. 0.80E-01    1.5     0.06640686     -5417.3880934412 -2.77E-01
   336 Broy./Diag. 0.80E-01    1.5     0.10591105     -5419.2162893882 -1.83E+00
   337 Broy./Diag. 0.80E-01    1.5     0.02736445     -5418.2990241860  9.17E-01
   338 Broy./Diag. 0.80E-01    1.5     0.09100006     -5417.9419205354  3.57E-01
   339 Broy./Diag. 0.80E-01    1.5     0.10343995     -5419.4181440964 -1.48E+00
   340 Broy./Diag. 0.80E-01    1.5     0.06837025     -5416.9777710250  2.44E+00
   341 Broy./Diag. 0.80E-01    1.5     0.07341332     -5418.8591428243 -1.88E+00
   342 Broy./Diag. 0.80E-01    1.5     0.11302594     -5416.6206387940  2.24E+00
   343 Broy./Diag. 0.80E-01    1.5     0.09240799     -5416.2132698863  4.07E-01
   344 Broy./Diag. 0.80E-01    1.5     0.08054141     -5416.3392547831 -1.26E-01
   345 Broy./Diag. 0.80E-01    1.5     0.09927281     -5414.1029270745  2.24E+00
   346 Broy./Diag. 0.80E-01    1.5     0.11747878     -5417.2943032030 -3.19E+00
   347 Broy./Diag. 0.80E-01    1.5     0.08759826     -5418.6471699250 -1.35E+00
   348 Broy./Diag. 0.80E-01    1.5     0.08639258     -5417.1852877418  1.46E+00
   349 Broy./Diag. 0.80E-01    1.5     0.08750968     -5415.3739328923  1.81E+00
   350 Broy./Diag. 0.80E-01    1.5     0.05411040     -5416.8481857278 -1.47E+00
   351 Broy./Diag. 0.80E-01    1.5     0.16419934     -5418.0025082697 -1.15E+00
   352 Broy./Diag. 0.80E-01    1.5     0.17127141     -5415.4175639512  2.58E+00
   353 Broy./Diag. 0.80E-01    1.5     0.04182410     -5417.1997983804 -1.78E+00
   354 Broy./Diag. 0.80E-01    1.5     0.10059336     -5417.7567918482 -5.57E-01
   355 Broy./Diag. 0.80E-01    1.5     0.26232950     -5416.1930137510  1.56E+00
   356 Broy./Diag. 0.80E-01    1.5     0.08275493     -5418.9451577859 -2.75E+00
   357 Broy./Diag. 0.80E-01    1.5     0.05196754     -5418.3691038648  5.76E-01
   358 Broy./Diag. 0.80E-01    1.5     0.18315663     -5413.5376996379  4.83E+00
   359 Broy./Diag. 0.80E-01    1.5     0.18048259     -5417.0833870962 -3.55E+00
   360 Broy./Diag. 0.80E-01    1.5     0.07248463     -5419.0786580072 -2.00E+00
   361 Broy./Diag. 0.80E-01    1.5     0.04826638     -5419.7110648241 -6.32E-01
   362 Broy./Diag. 0.80E-01    1.5     0.14747775     -5420.5878486668 -8.77E-01
