 DBCSR| CPU Multiplication driver                                           XSMM (U)
 DBCSR| Multrec recursion limit                                              512 (U)
 DBCSR| Multiplication stack size                                           1000 (D)
 DBCSR| Maximum elements for images                                    UNLIMITED (U)
 DBCSR| Multiplicative factor virtual images                                   1 (U)
 DBCSR| Use multiplication densification                                       T (D)
 DBCSR| Multiplication size stacks                                             3 (U)
 DBCSR| Use memory pool for CPU allocation                                     F (U)
 DBCSR| Number of 3D layers                                               SINGLE (U)
 DBCSR| Use MPI memory allocation                                              F (U)
 DBCSR| Use RMA algorithm                                                      F (U)
 DBCSR| Use Communication thread                                               T (U)
 DBCSR| Communication thread load                                             87 (D)
 DBCSR| MPI: My process id                                                     0
 DBCSR| MPI: Number of processes                                             128
 DBCSR| OMP: Current number of threads                                         1
 DBCSR| OMP: Max number of threads                                             1
 DBCSR| Split modifier for TAS multiplication algorithm                  1.0E+00 (U)


  **** **** ******  **  PROGRAM STARTED AT               2023-02-15 11:41:09.595
 ***** ** ***  *** **   PROGRAM STARTED ON                             nid001649
 **    ****   ******    PROGRAM STARTED BY                                cahart
 ***** **    ** ** **   PROGRAM PROCESS ID                                113178
  **** **  *******  **  PROGRAM STARTED IN /mnt/lustre/a2fs-work2/work/e05/e05/c
                                           ahart/postdoc/masters/ni/archer2/slab
                                           /optimise/magnetisation/scf_1e-4_temp
                                           -2000_mos-1000_alpha-0.08_beta-1.5_pe
                                           riodic-xyz/search/0.68_0.5

 CP2K| version string:                 CP2K version 2023.1 (Development Version)
 CP2K| source code revision number:                                  git:964cd58
 CP2K| cp2kflags: omp libint fftw3 libxc elpa parallel scalapack xsmm plumed2 mk
 CP2K|            l
 CP2K| is freely available from                            https://www.cp2k.org/
 CP2K| Program compiled at                          Mon 13 Feb 17:05:14 GMT 2023
 CP2K| Program compiled on                                                  ln01
 CP2K| Program compiled for                                              ARCHER2
 CP2K| Data directory path    /work/e05/e05/cahart/cp2k/cp2k-2023.1/cp2k-2023.1-
 CP2K| Input file name                                                  cp2k.inp

 GLOBAL| Force Environment number                                              1
 GLOBAL| Basis set file name                                        BASIS_MOLOPT
 GLOBAL| Potential file name                                      GTH_POTENTIALS
 GLOBAL| MM Potential file name                                     MM_POTENTIAL
 GLOBAL| Coordinate file name                                      __STD_INPUT__
 GLOBAL| Method name                                                        CP2K
 GLOBAL| Project name                                                    Ni_bulk
 GLOBAL| Run type                                                         ENERGY
 GLOBAL| FFT library                                                       FFTW3
 GLOBAL| Diagonalization library                                            ELPA
 GLOBAL| DGEMM library                                                      BLAS
 GLOBAL| Minimum number of eigenvectors for ELPA usage                        16
 GLOBAL| Orthonormality check for eigenvectors                          DISABLED
 GLOBAL| Matrix multiplication library                                 ScaLAPACK
 GLOBAL| All-to-all communication in single precision                          F
 GLOBAL| FFTs using library dependent lengths                                  F
 GLOBAL| Grid backend                                                       AUTO
 GLOBAL| Global print level                                               MEDIUM
 GLOBAL| MPI I/O enabled                                                       T
 GLOBAL| Total number of message passing processes                           128
 GLOBAL| Number of threads for this process                                    1
 GLOBAL| This output is from process                                           0
 GLOBAL| Stack size for threads created by OpenMP (OMP_STACKSIZE)        default
 GLOBAL| CPU model name                          AMD EPYC 7742 64-Core Processor
 GLOBAL| CPUID                                                              1002

 MEMORY| system memory details [Kb]
 MEMORY|                        rank 0           min           max       average
 MEMORY| MemTotal            263528088     263528088     263528088     263528088
 MEMORY| MemFree             239311064     239311064     239311064     239311064
 MEMORY| Buffers                 25432         25432         25432         25432
 MEMORY| Cached                 573488        573488        573488        573488
 MEMORY| Slab                  1508680       1508680       1508680       1508680
 MEMORY| SReclaimable           100984        100984        100984        100984
 MEMORY| MemLikelyFree       240010968     240010968     240010968     240010968


 *** Fundamental physical constants (SI units) ***

 *** Literature: B. J. Mohr and B. N. Taylor,
 ***             CODATA recommended values of the fundamental physical
 ***             constants: 2006, Web Version 5.1
 ***             http://physics.nist.gov/constants

 Speed of light in vacuum [m/s]                             2.99792458000000E+08
 Magnetic constant or permeability of vacuum [N/A**2]       1.25663706143592E-06
 Electric constant or permittivity of vacuum [F/m]          8.85418781762039E-12
 Planck constant (h) [J*s]                                  6.62606896000000E-34
 Planck constant (h-bar) [J*s]                              1.05457162825177E-34
 Elementary charge [C]                                      1.60217648700000E-19
 Electron mass [kg]                                         9.10938215000000E-31
 Electron g factor [ ]                                     -2.00231930436220E+00
 Proton mass [kg]                                           1.67262163700000E-27
 Fine-structure constant                                    7.29735253760000E-03
 Rydberg constant [1/m]                                     1.09737315685270E+07
 Avogadro constant [1/mol]                                  6.02214179000000E+23
 Boltzmann constant [J/K]                                   1.38065040000000E-23
 Atomic mass unit [kg]                                      1.66053878200000E-27
 Bohr radius [m]                                            5.29177208590000E-11

 *** Conversion factors ***

 [u] -> [a.u.]                                              1.82288848426455E+03
 [Angstrom] -> [Bohr] = [a.u.]                              1.88972613288564E+00
 [a.u.] = [Bohr] -> [Angstrom]                              5.29177208590000E-01
 [a.u.] -> [s]                                              2.41888432650478E-17
 [a.u.] -> [fs]                                             2.41888432650478E-02
 [a.u.] -> [J]                                              4.35974393937059E-18
 [a.u.] -> [N]                                              8.23872205491840E-08
 [a.u.] -> [K]                                              3.15774647902944E+05
 [a.u.] -> [kJ/mol]                                         2.62549961709828E+03
 [a.u.] -> [kcal/mol]                                       6.27509468713739E+02
 [a.u.] -> [Pa]                                             2.94210107994716E+13
 [a.u.] -> [bar]                                            2.94210107994716E+08
 [a.u.] -> [atm]                                            2.90362800883016E+08
 [a.u.] -> [eV]                                             2.72113838565563E+01
 [a.u.] -> [Hz]                                             6.57968392072181E+15
 [a.u.] -> [1/cm] (wave numbers)                            2.19474631370540E+05
 [a.u./Bohr**2] -> [1/cm]                                   5.14048714338585E+03
 

 CELL_TOP| Volume [angstrom^3]:                                       983.249569
 CELL_TOP| Vector a [angstrom     7.012     0.000     0.000   |a| =     7.011596
 CELL_TOP| Vector b [angstrom     0.000     7.012     0.000   |b| =     7.011596
 CELL_TOP| Vector c [angstrom     0.000     0.000    20.000   |c| =    20.000000
 CELL_TOP| Angle (b,c), alpha [degree]:                                90.000000
 CELL_TOP| Angle (a,c), beta  [degree]:                                90.000000
 CELL_TOP| Angle (a,b), gamma [degree]:                                90.000000
 CELL_TOP| Numerically orthorhombic:                                         YES
 CELL_TOP| Periodicity                                                       XYZ

 GENERATE|  Preliminary Number of Bonds generated:                             0
 GENERATE|  Achieved consistency in connectivity generation.

 CELL| Volume [angstrom^3]:                                           983.249569
 CELL| Vector a [angstrom]:       7.012     0.000     0.000   |a| =     7.011596
 CELL| Vector b [angstrom]:       0.000     7.012     0.000   |b| =     7.011596
 CELL| Vector c [angstrom]:       0.000     0.000    20.000   |c| =    20.000000
 CELL| Angle (b,c), alpha [degree]:                                    90.000000
 CELL| Angle (a,c), beta  [degree]:                                    90.000000
 CELL| Angle (a,b), gamma [degree]:                                    90.000000
 CELL| Numerically orthorhombic:                                             YES
 CELL| Periodicity                                                           XYZ

 CELL_REF| Volume [angstrom^3]:                                       983.249569
 CELL_REF| Vector a [angstrom     7.012     0.000     0.000   |a| =     7.011596
 CELL_REF| Vector b [angstrom     0.000     7.012     0.000   |b| =     7.011596
 CELL_REF| Vector c [angstrom     0.000     0.000    20.000   |c| =    20.000000
 CELL_REF| Angle (b,c), alpha [degree]:                                90.000000
 CELL_REF| Angle (a,c), beta  [degree]:                                90.000000
 CELL_REF| Angle (a,b), gamma [degree]:                                90.000000
 CELL_REF| Numerically orthorhombic:                                         YES
 CELL_REF| Periodicity                                                       XYZ

 *** WARNING in cryssym.F:165 :: Symmetry library SPGLIB not available ***


 *******************************************************************************
                                    Kpoints
 *******************************************************************************
 BRILLOUIN| K-point scheme                                        Monkhorst-Pack
 BRILLOUIN| K-Point grid                                             4    4    1
 BRILLOUIN| Accuracy in Symmetry determination                      0.100000E-05
 BRILLOUIN| K-Point point group symmetrization                               OFF
 BRILLOUIN| Wavefunction type                                            COMPLEX
 BRILLOUIN| List of Kpoints [2 Pi/Bohr]                                        8
 BRILLOUIN| Number           Weight            X              Y              Z
 BRILLOUIN|     1           0.12500       -0.37500       -0.37500        0.00000
 BRILLOUIN|     2           0.12500       -0.37500       -0.12500        0.00000
 BRILLOUIN|     3           0.12500       -0.37500        0.12500        0.00000
 BRILLOUIN|     4           0.12500       -0.37500        0.37500        0.00000
 BRILLOUIN|     5           0.12500       -0.12500       -0.37500        0.00000
 BRILLOUIN|     6           0.12500       -0.12500       -0.12500        0.00000
 BRILLOUIN|     7           0.12500       -0.12500        0.12500        0.00000
 BRILLOUIN|     8           0.12500       -0.12500        0.37500        0.00000
 *******************************************************************************

 *******************************************************************************
 *******************************************************************************
 **                                                                           **
 **     #####                         ##              ##                      **
 **    ##   ##            ##          ##              ##                      **
 **   ##     ##                       ##            ######                    **
 **   ##     ##  ##   ##  ##   #####  ##  ##   ####   ##    #####    #####    **
 **   ##     ##  ##   ##  ##  ##      ## ##   ##      ##   ##   ##  ##   ##   **
 **   ##  ## ##  ##   ##  ##  ##      ####     ###    ##   ######   ######    **
 **    ##  ###   ##   ##  ##  ##      ## ##      ##   ##   ##       ##        **
 **     #######   #####   ##   #####  ##  ##  ####    ##    #####   ##        **
 **           ##                                                    ##        **
 **                                                                           **
 **                                                ... make the atoms dance   **
 **                                                                           **
 **            Copyright (C) by CP2K developers group (2000-2023)             **
 **                      J. Chem. Phys. 152, 194103 (2020)                    **
 **                                                                           **
 *******************************************************************************

 *** WARNING in qs_environment.F:1456 :: Number of electrons will be ***
 *** overwritten by NELEC_ALPHA and NELEC_BETA, multiplicity will be ***
 *** ignored.                                                        ***

 Number of electrons should be                                               576
 Sum of NELEC_ALPHA and NELEC_BETA is                                    576.000

 *** WARNING in qs_environment.F:1488 :: NELEC_ALPHA is not an integer, ***
 *** many features will not be supported.                               ***


 *** WARNING in qs_environment.F:1500 :: NELEC_BETA is not an integer, ***
 *** many features will not be supported.                              ***


 *** WARNING in qs_environment.F:1532 :: More ADDED_MOs requested for beta ***
 *** spin than available.                                                  ***


 *** WARNING in qs_environment.F:1548 :: More added MOs requested than     ***
 *** available. The full set of unoccupied MOs will be used. Use           ***
 *** 'ADDED_MOS -1' to always use all available MOs and to get rid of this ***
 *** warning.                                                              ***


 DFT| Spin unrestricted (spin-polarized) Kohn-Sham calculation               UKS
 DFT| Multiplicity                                                             1
 DFT| Number of spin states                                                    2
 DFT| Charge                                                                   0
 DFT| Self-interaction correction (SIC)                                       NO
 DFT| Cutoffs: density                                              1.000000E-10
 DFT|          gradient                                             1.000000E-10
 DFT|          tau                                                  1.000000E-10
 DFT|          cutoff_smoothing_range                               0.000000E+00
 DFT| XC density smoothing                                                  NONE
 DFT| XC derivatives                                                          PW

 FUNCTIONAL| PBE:
 FUNCTIONAL| J.P.Perdew, K.Burke, M.Ernzerhof, Phys. Rev. Letter, vol. 77, n 18,
 FUNCTIONAL|  pp. 3865-3868, (1996){spin polarized}                             

 vdW POTENTIAL|                                                   Pair Potential
 vdW POTENTIAL|          DFT-D3 (Version 3.1)
 vdW POTENTIAL|          Potential Form: S. Grimme et al, JCP 132: 154104 (2010)
 vdW POTENTIAL|          Zero Damping
 vdW POTENTIAL|          Cutoff Radius [Bohr]:                             20.00
 vdW POTENTIAL|          s6 Scaling Factor:                               1.0000
 vdW POTENTIAL|          sr6 Scaling Factor:                              1.2170
 vdW POTENTIAL|          s8 Scaling Factor:                               0.7220
 vdW POTENTIAL|          Cutoff for CN calculation:                   0.1000E-05

 QS| Method:                                                                 GPW
 QS| Density plane wave grid type                        NON-SPHERICAL FULLSPACE
 QS| Number of grid levels:                                                    5
 QS| Density cutoff [a.u.]:                                                300.0
 QS| Multi grid cutoff [a.u.]: 1) grid level                               300.0
 QS|                           2) grid level                               100.0
 QS|                           3) grid level                                33.3
 QS|                           4) grid level                                11.1
 QS|                           5) grid level                                 3.7
 QS| Grid level progression factor:                                          3.0
 QS| Relative density cutoff [a.u.]:                                        30.0
 QS| Interaction thresholds: eps_pgf_orb:                                1.0E-06
 QS|                         eps_filter_matrix:                          0.0E+00
 QS|                         eps_core_charge:                            1.0E-14
 QS|                         eps_rho_gspace:                             1.0E-12
 QS|                         eps_rho_rspace:                             1.0E-12
 QS|                         eps_gvg_rspace:                             1.0E-06
 QS|                         eps_ppl:                                    1.0E-02
 QS|                         eps_ppnl:                                   1.0E-08


 ATOMIC KIND INFORMATION

  1. Atomic kind: Ni_i                                  Number of atoms:      16

     Orbital Basis Set                                        DZVP-MOLOPT-SR-GTH

       Number of orbital shell sets:                                           1
       Number of orbital shells:                                               8
       Number of primitive Cartesian functions:                                6
       Number of Cartesian basis functions:                                   31
       Number of spherical basis functions:                                   26
       Norm type:                                                              2

       Normalised Cartesian orbitals:

                        Set   Shell   Orbital            Exponent    Coefficient

                          1       1    2s               10.077428      -0.684558
                                                         5.847736      -0.844524
                                                         2.494033       1.088856
                                                         0.988355       0.395503
                                                         0.344978       0.010224
                                                         0.099466      -0.003250

                          1       2    3s               10.077428       0.096747
                                                         5.847736       0.162504
                                                         2.494033      -0.297192
                                                         0.988355      -0.319752
                                                         0.344978       0.088318
                                                         0.099466       0.118587

                          1       3    4s               10.077428       0.036437
                                                         5.847736      -0.381480
                                                         2.494033       0.003759
                                                         0.988355      -1.048256
                                                         0.344978       0.855825
                                                         0.099466      -0.176350

                          1       4    3px              10.077428      -3.133913
                                                         5.847736       3.027656
                                                         2.494033       2.353227
                                                         0.988355       0.554184
                                                         0.344978       0.019462
                                                         0.099466      -0.000291
                          1       4    3py              10.077428      -3.133913
                                                         5.847736       3.027656
                                                         2.494033       2.353227
                                                         0.988355       0.554184
                                                         0.344978       0.019462
                                                         0.099466      -0.000291
                          1       4    3pz              10.077428      -3.133913
                                                         5.847736       3.027656
                                                         2.494033       2.353227
                                                         0.988355       0.554184
                                                         0.344978       0.019462
                                                         0.099466      -0.000291

                          1       5    4px              10.077428      -0.112729
                                                         5.847736      -0.114008
                                                         2.494033      -0.347303
                                                         0.988355      -0.110323
                                                         0.344978       0.154096
                                                         0.099466       0.058386
                          1       5    4py              10.077428      -0.112729
                                                         5.847736      -0.114008
                                                         2.494033      -0.347303
                                                         0.988355      -0.110323
                                                         0.344978       0.154096
                                                         0.099466       0.058386
                          1       5    4pz              10.077428      -0.112729
                                                         5.847736      -0.114008
                                                         2.494033      -0.347303
                                                         0.988355      -0.110323
                                                         0.344978       0.154096
                                                         0.099466       0.058386

                          1       6    4dx2             10.077428       8.232726
                                                         5.847736       9.105758
                                                         2.494033       2.849835
                                                         0.988355       0.554319
                                                         0.344978       0.067245
                                                         0.099466       0.001940
                          1       6    4dxy             10.077428      14.259500
                                                         5.847736      15.771636
                                                         2.494033       4.936060
                                                         0.988355       0.960109
                                                         0.344978       0.116472
                                                         0.099466       0.003360
                          1       6    4dxz             10.077428      14.259500
                                                         5.847736      15.771636
                                                         2.494033       4.936060
                                                         0.988355       0.960109
                                                         0.344978       0.116472
                                                         0.099466       0.003360
                          1       6    4dy2             10.077428       8.232726
                                                         5.847736       9.105758
                                                         2.494033       2.849835
                                                         0.988355       0.554319
                                                         0.344978       0.067245
                                                         0.099466       0.001940
                          1       6    4dyz             10.077428      14.259500
                                                         5.847736      15.771636
                                                         2.494033       4.936060
                                                         0.988355       0.960109
                                                         0.344978       0.116472
                                                         0.099466       0.003360
                          1       6    4dz2             10.077428       8.232726
                                                         5.847736       9.105758
                                                         2.494033       2.849835
                                                         0.988355       0.554319
                                                         0.344978       0.067245
                                                         0.099466       0.001940

                          1       7    5dx2             10.077428      -2.715373
                                                         5.847736      -4.020640
                                                         2.494033      -1.397569
                                                         0.988355      -0.076143
                                                         0.344978       0.033435
                                                         0.099466       0.026032
                          1       7    5dxy             10.077428      -4.703164
                                                         5.847736      -6.963952
                                                         2.494033      -2.420661
                                                         0.988355      -0.131883
                                                         0.344978       0.057911
                                                         0.099466       0.045088
                          1       7    5dxz             10.077428      -4.703164
                                                         5.847736      -6.963952
                                                         2.494033      -2.420661
                                                         0.988355      -0.131883
                                                         0.344978       0.057911
                                                         0.099466       0.045088
                          1       7    5dy2             10.077428      -2.715373
                                                         5.847736      -4.020640
                                                         2.494033      -1.397569
                                                         0.988355      -0.076143
                                                         0.344978       0.033435
                                                         0.099466       0.026032
                          1       7    5dyz             10.077428      -4.703164
                                                         5.847736      -6.963952
                                                         2.494033      -2.420661
                                                         0.988355      -0.131883
                                                         0.344978       0.057911
                                                         0.099466       0.045088
                          1       7    5dz2             10.077428      -2.715373
                                                         5.847736      -4.020640
                                                         2.494033      -1.397569
                                                         0.988355      -0.076143
                                                         0.344978       0.033435
                                                         0.099466       0.026032

                          1       8    5fx3             10.077428      -0.467694
                                                         5.847736       0.618100
                                                         2.494033       0.066069
                                                         0.988355       0.262898
                                                         0.344978       0.004720
                                                         0.099466       0.007748
                          1       8    5fx2y            10.077428      -1.045795
                                                         5.847736       1.382114
                                                         2.494033       0.147734
                                                         0.988355       0.587859
                                                         0.344978       0.010555
                                                         0.099466       0.017325
                          1       8    5fx2z            10.077428      -1.045795
                                                         5.847736       1.382114
                                                         2.494033       0.147734
                                                         0.988355       0.587859
                                                         0.344978       0.010555
                                                         0.099466       0.017325
                          1       8    5fxy2            10.077428      -1.045795
                                                         5.847736       1.382114
                                                         2.494033       0.147734
                                                         0.988355       0.587859
                                                         0.344978       0.010555
                                                         0.099466       0.017325
                          1       8    5fxyz            10.077428      -1.811371
                                                         5.847736       2.393892
                                                         2.494033       0.255883
                                                         0.988355       1.018201
                                                         0.344978       0.018282
                                                         0.099466       0.030008
                          1       8    5fxz2            10.077428      -1.045795
                                                         5.847736       1.382114
                                                         2.494033       0.147734
                                                         0.988355       0.587859
                                                         0.344978       0.010555
                                                         0.099466       0.017325
                          1       8    5fy3             10.077428      -0.467694
                                                         5.847736       0.618100
                                                         2.494033       0.066069
                                                         0.988355       0.262898
                                                         0.344978       0.004720
                                                         0.099466       0.007748
                          1       8    5fy2z            10.077428      -1.045795
                                                         5.847736       1.382114
                                                         2.494033       0.147734
                                                         0.988355       0.587859
                                                         0.344978       0.010555
                                                         0.099466       0.017325
                          1       8    5fyz2            10.077428      -1.045795
                                                         5.847736       1.382114
                                                         2.494033       0.147734
                                                         0.988355       0.587859
                                                         0.344978       0.010555
                                                         0.099466       0.017325
                          1       8    5fz3             10.077428      -0.467694
                                                         5.847736       0.618100
                                                         2.494033       0.066069
                                                         0.988355       0.262898
                                                         0.344978       0.004720
                                                         0.099466       0.007748

       Atomic covalent radius [Angstrom]:                                  1.150

       Atomic van der Waals radius [Angstrom]:                             1.630

     GTH Potential information for                                   GTH-PBE-q18

       Description:                       Goedecker-Teter-Hutter pseudopotential
                                           Goedecker et al., PRB 54, 1703 (1996)
                                          Hartwigsen et al., PRB 58, 3641 (1998)
                                                      Krack, TCA 114, 145 (2005)

       Gaussian exponent of the core charge distribution:               4.081633
       Electronic configuration (s p d ...):                           4   6   8

       Parameters of the local part of the GTH pseudopotential:

                          rloc        C1          C2          C3          C4
                        0.350000    2.102166    0.648484

       Parameters of the non-local part of the GTH pseudopotential:

                   l      r(l)      h(i,j,l)

                   0    0.261295    0.622658    9.970227
                                    9.970227  -12.871507
                   1    0.224253  -11.142708   12.429566
                                   12.429566  -14.706861
                   2    0.215348  -12.628146

  2. Atomic kind: Ni_b                                  Number of atoms:      16

     Orbital Basis Set                                        DZVP-MOLOPT-SR-GTH

       Number of orbital shell sets:                                           1
       Number of orbital shells:                                               8
       Number of primitive Cartesian functions:                                6
       Number of Cartesian basis functions:                                   31
       Number of spherical basis functions:                                   26
       Norm type:                                                              2

       Normalised Cartesian orbitals:

                        Set   Shell   Orbital            Exponent    Coefficient

                          1       1    2s               10.077428      -0.684558
                                                         5.847736      -0.844524
                                                         2.494033       1.088856
                                                         0.988355       0.395503
                                                         0.344978       0.010224
                                                         0.099466      -0.003250

                          1       2    3s               10.077428       0.096747
                                                         5.847736       0.162504
                                                         2.494033      -0.297192
                                                         0.988355      -0.319752
                                                         0.344978       0.088318
                                                         0.099466       0.118587

                          1       3    4s               10.077428       0.036437
                                                         5.847736      -0.381480
                                                         2.494033       0.003759
                                                         0.988355      -1.048256
                                                         0.344978       0.855825
                                                         0.099466      -0.176350

                          1       4    3px              10.077428      -3.133913
                                                         5.847736       3.027656
                                                         2.494033       2.353227
                                                         0.988355       0.554184
                                                         0.344978       0.019462
                                                         0.099466      -0.000291
                          1       4    3py              10.077428      -3.133913
                                                         5.847736       3.027656
                                                         2.494033       2.353227
                                                         0.988355       0.554184
                                                         0.344978       0.019462
                                                         0.099466      -0.000291
                          1       4    3pz              10.077428      -3.133913
                                                         5.847736       3.027656
                                                         2.494033       2.353227
                                                         0.988355       0.554184
                                                         0.344978       0.019462
                                                         0.099466      -0.000291

                          1       5    4px              10.077428      -0.112729
                                                         5.847736      -0.114008
                                                         2.494033      -0.347303
                                                         0.988355      -0.110323
                                                         0.344978       0.154096
                                                         0.099466       0.058386
                          1       5    4py              10.077428      -0.112729
                                                         5.847736      -0.114008
                                                         2.494033      -0.347303
                                                         0.988355      -0.110323
                                                         0.344978       0.154096
                                                         0.099466       0.058386
                          1       5    4pz              10.077428      -0.112729
                                                         5.847736      -0.114008
                                                         2.494033      -0.347303
                                                         0.988355      -0.110323
                                                         0.344978       0.154096
                                                         0.099466       0.058386

                          1       6    4dx2             10.077428       8.232726
                                                         5.847736       9.105758
                                                         2.494033       2.849835
                                                         0.988355       0.554319
                                                         0.344978       0.067245
                                                         0.099466       0.001940
                          1       6    4dxy             10.077428      14.259500
                                                         5.847736      15.771636
                                                         2.494033       4.936060
                                                         0.988355       0.960109
                                                         0.344978       0.116472
                                                         0.099466       0.003360
                          1       6    4dxz             10.077428      14.259500
                                                         5.847736      15.771636
                                                         2.494033       4.936060
                                                         0.988355       0.960109
                                                         0.344978       0.116472
                                                         0.099466       0.003360
                          1       6    4dy2             10.077428       8.232726
                                                         5.847736       9.105758
                                                         2.494033       2.849835
                                                         0.988355       0.554319
                                                         0.344978       0.067245
                                                         0.099466       0.001940
                          1       6    4dyz             10.077428      14.259500
                                                         5.847736      15.771636
                                                         2.494033       4.936060
                                                         0.988355       0.960109
                                                         0.344978       0.116472
                                                         0.099466       0.003360
                          1       6    4dz2             10.077428       8.232726
                                                         5.847736       9.105758
                                                         2.494033       2.849835
                                                         0.988355       0.554319
                                                         0.344978       0.067245
                                                         0.099466       0.001940

                          1       7    5dx2             10.077428      -2.715373
                                                         5.847736      -4.020640
                                                         2.494033      -1.397569
                                                         0.988355      -0.076143
                                                         0.344978       0.033435
                                                         0.099466       0.026032
                          1       7    5dxy             10.077428      -4.703164
                                                         5.847736      -6.963952
                                                         2.494033      -2.420661
                                                         0.988355      -0.131883
                                                         0.344978       0.057911
                                                         0.099466       0.045088
                          1       7    5dxz             10.077428      -4.703164
                                                         5.847736      -6.963952
                                                         2.494033      -2.420661
                                                         0.988355      -0.131883
                                                         0.344978       0.057911
                                                         0.099466       0.045088
                          1       7    5dy2             10.077428      -2.715373
                                                         5.847736      -4.020640
                                                         2.494033      -1.397569
                                                         0.988355      -0.076143
                                                         0.344978       0.033435
                                                         0.099466       0.026032
                          1       7    5dyz             10.077428      -4.703164
                                                         5.847736      -6.963952
                                                         2.494033      -2.420661
                                                         0.988355      -0.131883
                                                         0.344978       0.057911
                                                         0.099466       0.045088
                          1       7    5dz2             10.077428      -2.715373
                                                         5.847736      -4.020640
                                                         2.494033      -1.397569
                                                         0.988355      -0.076143
                                                         0.344978       0.033435
                                                         0.099466       0.026032

                          1       8    5fx3             10.077428      -0.467694
                                                         5.847736       0.618100
                                                         2.494033       0.066069
                                                         0.988355       0.262898
                                                         0.344978       0.004720
                                                         0.099466       0.007748
                          1       8    5fx2y            10.077428      -1.045795
                                                         5.847736       1.382114
                                                         2.494033       0.147734
                                                         0.988355       0.587859
                                                         0.344978       0.010555
                                                         0.099466       0.017325
                          1       8    5fx2z            10.077428      -1.045795
                                                         5.847736       1.382114
                                                         2.494033       0.147734
                                                         0.988355       0.587859
                                                         0.344978       0.010555
                                                         0.099466       0.017325
                          1       8    5fxy2            10.077428      -1.045795
                                                         5.847736       1.382114
                                                         2.494033       0.147734
                                                         0.988355       0.587859
                                                         0.344978       0.010555
                                                         0.099466       0.017325
                          1       8    5fxyz            10.077428      -1.811371
                                                         5.847736       2.393892
                                                         2.494033       0.255883
                                                         0.988355       1.018201
                                                         0.344978       0.018282
                                                         0.099466       0.030008
                          1       8    5fxz2            10.077428      -1.045795
                                                         5.847736       1.382114
                                                         2.494033       0.147734
                                                         0.988355       0.587859
                                                         0.344978       0.010555
                                                         0.099466       0.017325
                          1       8    5fy3             10.077428      -0.467694
                                                         5.847736       0.618100
                                                         2.494033       0.066069
                                                         0.988355       0.262898
                                                         0.344978       0.004720
                                                         0.099466       0.007748
                          1       8    5fy2z            10.077428      -1.045795
                                                         5.847736       1.382114
                                                         2.494033       0.147734
                                                         0.988355       0.587859
                                                         0.344978       0.010555
                                                         0.099466       0.017325
                          1       8    5fyz2            10.077428      -1.045795
                                                         5.847736       1.382114
                                                         2.494033       0.147734
                                                         0.988355       0.587859
                                                         0.344978       0.010555
                                                         0.099466       0.017325
                          1       8    5fz3             10.077428      -0.467694
                                                         5.847736       0.618100
                                                         2.494033       0.066069
                                                         0.988355       0.262898
                                                         0.344978       0.004720
                                                         0.099466       0.007748

       Atomic covalent radius [Angstrom]:                                  1.150

       Atomic van der Waals radius [Angstrom]:                             1.630

     GTH Potential information for                                   GTH-PBE-q18

       Description:                       Goedecker-Teter-Hutter pseudopotential
                                           Goedecker et al., PRB 54, 1703 (1996)
                                          Hartwigsen et al., PRB 58, 3641 (1998)
                                                      Krack, TCA 114, 145 (2005)

       Gaussian exponent of the core charge distribution:               4.081633
       Electronic configuration (s p d ...):                           4   6   8

       Parameters of the local part of the GTH pseudopotential:

                          rloc        C1          C2          C3          C4
                        0.350000    2.102166    0.648484

       Parameters of the non-local part of the GTH pseudopotential:

                   l      r(l)      h(i,j,l)

                   0    0.261295    0.622658    9.970227
                                    9.970227  -12.871507
                   1    0.224253  -11.142708   12.429566
                                   12.429566  -14.706861
                   2    0.215348  -12.628146


 MOLECULE KIND INFORMATION


 All atoms are their own molecule, skipping detailed information


 TOTAL NUMBERS AND MAXIMUM NUMBERS

  Total number of            - Atomic kinds:                                   2
                             - Atoms:                                         32
                             - Shell sets:                                    32
                             - Shells:                                       256
                             - Primitive Cartesian functions:                192
                             - Cartesian basis functions:                    992
                             - Spherical basis functions:                    832

  Maximum angular momentum of- Orbital basis functions:                        3
                             - Local part of the GTH pseudopotential:          2
                             - Non-local part of the GTH pseudopotential:      3


 MODULE QUICKSTEP: ATOMIC COORDINATES IN ANGSTROM

   Atom Kind Element         X             Y             Z       Z(eff)     Mass
      1    1 Ni   28      0.876298      0.876298      7.370500  18.0000  58.6934
      2    1 Ni   28      0.876298      4.382298      7.370500  18.0000  58.6934
      3    1 Ni   28      2.629298      2.629298      7.370500  18.0000  58.6934
      4    1 Ni   28      2.629298      6.135298      7.370500  18.0000  58.6934
      5    1 Ni   28      4.382298      0.876298      7.370500  18.0000  58.6934
      6    1 Ni   28      4.382298      4.382298      7.370500  18.0000  58.6934
      7    1 Ni   28      6.135298      2.629298      7.370500  18.0000  58.6934
      8    1 Ni   28      6.135298      6.135298      7.370500  18.0000  58.6934
      9    2 Ni   28      0.876298      2.629298      9.123500  18.0000  58.6934
     10    2 Ni   28      0.876298      6.135298      9.123500  18.0000  58.6934
     11    2 Ni   28      2.629298      0.876298      9.123500  18.0000  58.6934
     12    2 Ni   28      2.629298      4.382298      9.123500  18.0000  58.6934
     13    2 Ni   28      4.382298      2.629298      9.123500  18.0000  58.6934
     14    2 Ni   28      4.382298      6.135298      9.123500  18.0000  58.6934
     15    2 Ni   28      6.135298      0.876298      9.123500  18.0000  58.6934
     16    2 Ni   28      6.135298      4.382298      9.123500  18.0000  58.6934
     17    2 Ni   28      0.876298      0.876298     10.876500  18.0000  58.6934
     18    2 Ni   28      0.876298      4.382298     10.876500  18.0000  58.6934
     19    2 Ni   28      2.629298      2.629298     10.876500  18.0000  58.6934
     20    2 Ni   28      2.629298      6.135298     10.876500  18.0000  58.6934
     21    2 Ni   28      4.382298      0.876298     10.876500  18.0000  58.6934
     22    2 Ni   28      4.382298      4.382298     10.876500  18.0000  58.6934
     23    2 Ni   28      6.135298      2.629298     10.876500  18.0000  58.6934
     24    2 Ni   28      6.135298      6.135298     10.876500  18.0000  58.6934
     25    1 Ni   28      0.876298      2.629298     12.629500  18.0000  58.6934
     26    1 Ni   28      0.876298      6.135298     12.629500  18.0000  58.6934
     27    1 Ni   28      2.629298      0.876298     12.629500  18.0000  58.6934
     28    1 Ni   28      2.629298      4.382298     12.629500  18.0000  58.6934
     29    1 Ni   28      4.382298      2.629298     12.629500  18.0000  58.6934
     30    1 Ni   28      4.382298      6.135298     12.629500  18.0000  58.6934
     31    1 Ni   28      6.135298      0.876298     12.629500  18.0000  58.6934
     32    1 Ni   28      6.135298      4.382298     12.629500  18.0000  58.6934



 SCF PARAMETERS         Density guess:                                    ATOMIC
                        --------------------------------------------------------
                        max_scf:                                             500
                        max_scf_history:                                       0
                        max_diis:                                              4
                        --------------------------------------------------------
                        eps_scf:                                        1.00E-04
                        eps_scf_history:                                0.00E+00
                        eps_diis:                                       1.00E-01
                        eps_eigval:                                     1.00E-05
                        --------------------------------------------------------
                        level_shift [a.u.]:                             0.000000
                        added MOs                                       534  553
                        --------------------------------------------------------
                        Mixing method:                            BROYDEN_MIXING
                                                charge density mixing in g-space
                        --------------------------------------------------------
                        Smear method:                                FERMI_DIRAC
                        Electronic temperature [K]:                       2000.0
                        Electronic temperature [a.u.]:                  6.33E-03
                        Accuracy threshold:                             1.00E-10
                        --------------------------------------------------------
                        No outer SCF

 PW_GRID| Information for grid number                                          1
 PW_GRID| Grid distributed over                                   128 processors
 PW_GRID| Real space group dimensions                                     8   16
 PW_GRID| the grid is blocked:                                               YES
 PW_GRID| Cutoff [a.u.]                                                    300.0
 PW_GRID| spherical cutoff:                                                   NO
 PW_GRID|   Bounds   1            -54      53                Points:         108
 PW_GRID|   Bounds   2            -54      53                Points:         108
 PW_GRID|   Bounds   3           -150     149                Points:         300
 PW_GRID| Volume element (a.u.^3)  0.1896E-02     Volume (a.u.^3)      6635.2971
 PW_GRID| Grid span                                                    FULLSPACE
 PW_GRID|   Distribution                         Average         Max         Min
 PW_GRID|   G-Vectors                            27337.5       28728       25272
 PW_GRID|   G-Rays                                 253.1         266         234
 PW_GRID|   Real Space Points                    27337.5       28728       25272

 PW_GRID| Information for grid number                                          2
 PW_GRID| Number of the reference grid                                         1
 PW_GRID| Grid distributed over                                   128 processors
 PW_GRID| Real space group dimensions                                     8   16
 PW_GRID| the grid is blocked:                                                NO
 PW_GRID| Cutoff [a.u.]                                                    100.0
 PW_GRID| spherical cutoff:                                                   NO
 PW_GRID|   Bounds   1            -30      29                Points:          60
 PW_GRID|   Bounds   2            -30      29                Points:          60
 PW_GRID|   Bounds   3            -90      89                Points:         180
 PW_GRID| Volume element (a.u.^3)  0.1024E-01     Volume (a.u.^3)      6635.2971
 PW_GRID| Grid span                                                    FULLSPACE
 PW_GRID|   Distribution                         Average         Max         Min
 PW_GRID|   G-Vectors                             5062.5       15960           0
 PW_GRID|   G-Rays                                  84.4         266           0
 PW_GRID|   Real Space Points                     5062.5        5760        3780

 PW_GRID| Information for grid number                                          3
 PW_GRID| Number of the reference grid                                         1
 PW_GRID| Grid distributed over                                   128 processors
 PW_GRID| Real space group dimensions                                     8   16
 PW_GRID| the grid is blocked:                                                NO
 PW_GRID| Cutoff [a.u.]                                                     33.3
 PW_GRID| spherical cutoff:                                                   NO
 PW_GRID|   Bounds   1            -18      17                Points:          36
 PW_GRID|   Bounds   2            -18      17                Points:          36
 PW_GRID|   Bounds   3            -50      49                Points:         100
 PW_GRID| Volume element (a.u.^3)  0.5120E-01     Volume (a.u.^3)      6635.2971
 PW_GRID| Grid span                                                    FULLSPACE
 PW_GRID|   Distribution                         Average         Max         Min
 PW_GRID|   G-Vectors                             1012.5        9576           0
 PW_GRID|   G-Rays                                  28.1         266           0
 PW_GRID|   Real Space Points                     1012.5        1500         800

 PW_GRID| Information for grid number                                          4
 PW_GRID| Number of the reference grid                                         1
 PW_GRID| Grid distributed over                                   128 processors
 PW_GRID| Real space group dimensions                                     8   16
 PW_GRID| the grid is blocked:                                                NO
 PW_GRID| Cutoff [a.u.]                                                     11.1
 PW_GRID| spherical cutoff:                                                   NO
 PW_GRID|   Bounds   1            -10       9                Points:          20
 PW_GRID|   Bounds   2            -10       9                Points:          20
 PW_GRID|   Bounds   3            -30      29                Points:          60
 PW_GRID| Volume element (a.u.^3)  0.2765         Volume (a.u.^3)      6635.2971
 PW_GRID| Grid span                                                    FULLSPACE
 PW_GRID|   Distribution                         Average         Max         Min
 PW_GRID|   G-Vectors                              187.5        3800           0
 PW_GRID|   G-Rays                                   9.4         190           0
 PW_GRID|   Real Space Points                      187.5         360         120

 PW_GRID| Information for grid number                                          5
 PW_GRID| Number of the reference grid                                         1
 PW_GRID| Grid distributed over                                   128 processors
 PW_GRID| Real space group dimensions                                     8   16
 PW_GRID| the grid is blocked:                                                NO
 PW_GRID| Cutoff [a.u.]                                                      3.7
 PW_GRID| spherical cutoff:                                                   NO
 PW_GRID|   Bounds   1             -6       5                Points:          12
 PW_GRID|   Bounds   2             -6       5                Points:          12
 PW_GRID|   Bounds   3            -18      17                Points:          36
 PW_GRID| Volume element (a.u.^3)   1.280         Volume (a.u.^3)      6635.2971
 PW_GRID| Grid span                                                    FULLSPACE
 PW_GRID|   Distribution                         Average         Max         Min
 PW_GRID|   G-Vectors                               40.5        1296           0
 PW_GRID|   G-Rays                                   3.4         108           0
 PW_GRID|   Real Space Points                       40.5          72           0

 POISSON| Solver                                                        PERIODIC
 POISSON| Periodicity                                                        XYZ

 RS_GRID| Information for grid number                                          1
 RS_GRID|   Bounds   1            -54      53                Points:         108
 RS_GRID|   Bounds   2            -54      53                Points:         108
 RS_GRID|   Bounds   3           -150     149                Points:         300
 RS_GRID| Real space distribution over                                  8 groups
 RS_GRID| Real space distribution along direction                              2
 RS_GRID| Border size                                                         28
 RS_GRID| Real space distribution over                                 16 groups
 RS_GRID| Real space distribution along direction                              3
 RS_GRID| Border size                                                         28
 RS_GRID|   Distribution                         Average         Max         Min
 RS_GRID|   Planes                                  69.5          70          69
 RS_GRID|   Distribution                         Average         Max         Min
 RS_GRID|   Planes                                  74.8          75          74

 RS_GRID| Information for grid number                                          2
 RS_GRID|   Bounds   1            -30      29                Points:          60
 RS_GRID|   Bounds   2            -30      29                Points:          60
 RS_GRID|   Bounds   3            -90      89                Points:         180
 RS_GRID| Real space fully replicated
 RS_GRID| Group size                                                           1

 RS_GRID| Information for grid number                                          3
 RS_GRID|   Bounds   1            -18      17                Points:          36
 RS_GRID|   Bounds   2            -18      17                Points:          36
 RS_GRID|   Bounds   3            -50      49                Points:         100
 RS_GRID| Real space fully replicated
 RS_GRID| Group size                                                           1

 RS_GRID| Information for grid number                                          4
 RS_GRID|   Bounds   1            -10       9                Points:          20
 RS_GRID|   Bounds   2            -10       9                Points:          20
 RS_GRID|   Bounds   3            -30      29                Points:          60
 RS_GRID| Real space fully replicated
 RS_GRID| Group size                                                           1

 RS_GRID| Information for grid number                                          5
 RS_GRID|   Bounds   1             -6       5                Points:          12
 RS_GRID|   Bounds   2             -6       5                Points:          12
 RS_GRID|   Bounds   3            -18      17                Points:          36
 RS_GRID| Real space fully replicated
 RS_GRID| Group size                                                           1

 Spin 1

 Number of electrons:                                                        297.440
 Number of occupied orbitals:                                                298
 Number of molecular orbitals:                                               832

 Spin 2

 Number of electrons:                                                        278.560
 Number of occupied orbitals:                                                279
 Number of molecular orbitals:                                               832

 Number of orbital functions:                                                832
 Number of independent orbital functions:                                    832

 Extrapolation method: initial_guess

 Atomic guess: The first density matrix is obtained in terms of atomic orbitals
               and electronic configurations assigned to each atomic kind

 Guess for atomic kind: Ni_i

 Electronic structure
    Total number of core electrons                                         10.00
    Total number of valence electrons                                      18.00
    Total number of electrons                                              28.00
    Multiplicity                                                         doublet
    Alpha Electrons
    S   [  1.00  1.00] 1.00  1.00
    P   [  3.00] 3.00
    D      4.25
    Beta Electrons
    S   [  1.00  1.00] 1.00  1.00
    P   [  3.00] 3.00
    D      3.75


 *******************************************************************************
                  Iteration          Convergence                     Energy [au]
 *******************************************************************************
                          1         1.51687                    -167.065012761055
                          2         14.9817                    -156.620431300845
                          3         2.25575                    -168.317311438693
                          4        0.189210                    -168.607926092750
                          5        0.708658E-01                -168.610773319290
                          6        0.122256E-01                -168.611238205502
                          7        0.598421E-02                -168.611272268995
                          8        0.528277E-02                -168.611272438110
                          9        0.104644E-02                -168.611275321653
                         10        0.260234E-02                -168.611274926630
                         11        0.975322E-03                -168.611275328217
                         12        0.161067E-03                -168.611275447773
                         13        0.147413E-03                -168.611275446839
                         14        0.115114E-03                -168.611275449434
                         15        0.167217E-03                -168.611275445436
                         16        0.255374E-04                -168.611275450531
                         17        0.418369E-04                -168.611275450414
                         18        0.393709E-04                -168.611275450477
                         19        0.239931E-04                -168.611275450542
                         20        0.173885E-04                -168.611275450557
                         21        0.851368E-05                -168.611275450578
                         22        0.849928E-05                -168.611275450580
                         23        0.544937E-05                -168.611275450584
                         24        0.540003E-05                -168.611275450586
                         25        0.613371E-05                -168.611275450584
                         26        0.311593E-06                -168.611275450588

 Energy components [Hartree]           Total Energy ::         -168.611275450588
                                        Band Energy ::          -26.568680144499
                                     Kinetic Energy ::           97.303659243130
                                   Potential Energy ::         -265.914934693718
                                      Virial (-V/T) ::            2.732835915546
                                        Core Energy ::         -299.566189183323
                                          XC Energy ::          -16.224592878785
                                     Coulomb Energy ::          147.179506611520
                       Total Pseudopotential Energy ::         -396.956189041778
                       Local Pseudopotential Energy ::         -362.645043136649
                    Nonlocal Pseudopotential Energy ::          -34.311145905129
                                        Confinement ::            0.863406153250

 Orbital energies  State     Spin  L     Occupation   Energy[a.u.]    Energy[eV]

                       1    alpha  0          1.000      -4.168335   -113.426177
                       2    alpha  0          1.000      -0.180730     -4.917906
                       1     beta  0          1.000      -4.145459   -112.803683
                       2     beta  0          1.000      -0.177117     -4.819606

                       1    alpha  1          3.000      -2.574525    -70.056390
                       1     beta  1          3.000      -2.552268    -69.450746

                       1    alpha  2          4.250      -0.323446     -8.801405
                       1     beta  2          3.750      -0.304537     -8.286881


 Total Electron Density at R=0:                                         0.030429

 Guess for atomic kind: Ni_b

 Electronic structure
    Total number of core electrons                                         10.00
    Total number of valence electrons                                      18.00
    Total number of electrons                                              28.00
    Multiplicity                                                         doublet
    Alpha Electrons
    S   [  1.00  1.00] 1.00  1.00
    P   [  3.00] 3.00
    D      4.34
    Beta Electrons
    S   [  1.00  1.00] 1.00  1.00
    P   [  3.00] 3.00
    D      3.66


 *******************************************************************************
                  Iteration          Convergence                     Energy [au]
 *******************************************************************************
                          1         1.51725                    -167.067147250801
                          2         15.3495                    -156.640099988554
                          3         2.32652                    -168.319121028661
                          4        0.205007                    -168.609677367766
                          5        0.803888E-01                -168.612631553662
                          6        0.167240E-01                -168.613213583884
                          7        0.324808E-02                -168.613282461314
                          8        0.340899E-02                -168.613282280121
                          9        0.283478E-03                -168.613283474598
                         10        0.182839E-02                -168.613283247458
                         11        0.570688E-03                -168.613283414207
                         12        0.167638E-03                -168.613283474269
                         13        0.184412E-03                -168.613283474857
                         14        0.162165E-03                -168.613283477944
                         15        0.184419E-03                -168.613283475898
                         16        0.494126E-04                -168.613283481091
                         17        0.222770E-04                -168.613283481205
                         18        0.169103E-04                -168.613283481261
                         19        0.804759E-05                -168.613283481277
                         20        0.103974E-04                -168.613283481276
                         21        0.416666E-05                -168.613283481281
                         22        0.731978E-05                -168.613283481282
                         23        0.547558E-05                -168.613283481283
                         24        0.755375E-06                -168.613283481286

 Energy components [Hartree]           Total Energy ::         -168.613283481286
                                        Band Energy ::          -26.569642942493
                                     Kinetic Energy ::           97.306376658373
                                   Potential Energy ::         -265.919660139659
                                      Virial (-V/T) ::            2.732808159873
                                        Core Energy ::         -299.567778928550
                                          XC Energy ::          -16.226891107252
                                     Coulomb Energy ::          147.181386554517
                       Total Pseudopotential Energy ::         -396.960496491473
                       Local Pseudopotential Energy ::         -362.647926530805
                    Nonlocal Pseudopotential Energy ::          -34.312569960669
                                        Confinement ::            0.863409045503

 Orbital energies  State     Spin  L     Occupation   Energy[a.u.]    Energy[eV]

                       1    alpha  0          1.000      -4.172237   -113.532355
                       2    alpha  0          1.000      -0.181361     -4.935085
                       1     beta  0          1.000      -4.141126   -112.685764
                       2     beta  0          1.000      -0.176447     -4.801377

                       1    alpha  1          3.000      -2.578322    -70.159705
                       1     beta  1          3.000      -2.548052    -69.336026

                       1    alpha  2          4.340      -0.326683     -8.889499
                       1     beta  2          3.660      -0.300969     -8.189770


 Total Electron Density at R=0:                                         0.030423

 Spin 1
 Re-scaling the density matrix to get the right number of electrons for spin 1
                  # Electrons              Trace(P)               Scaling factor
                        297.440             297.440                        1.000

 Spin 2
 Re-scaling the density matrix to get the right number of electrons for spin 2
                  # Electrons              Trace(P)               Scaling factor
                        278.560             278.560                        1.000


 SCF WAVEFUNCTION OPTIMIZATION

  Step     Update method      Time    Convergence         Total energy    Change
  ------------------------------------------------------------------------------
     1 NoMix/Diag. 0.80E-01    1.5     0.87397907     -5426.4399568234 -5.43E+03
     2 Broy./Diag. 0.80E-01    1.5     0.01659544     -5316.4768532796  1.10E+02
     3 Broy./Diag. 0.80E-01    1.5     0.04753605     -5351.0973300176 -3.46E+01
     4 Broy./Diag. 0.80E-01    1.5     0.00736231     -5410.8628867443 -5.98E+01
     5 Broy./Diag. 0.80E-01    1.5     0.01159115     -5415.7684038012 -4.91E+00
     6 Broy./Diag. 0.80E-01    1.5     0.01042164     -5416.1715498699 -4.03E-01
     7 Broy./Diag. 0.80E-01    1.5     0.00208588     -5416.8750293070 -7.03E-01
     8 Broy./Diag. 0.80E-01    1.5     0.00974015     -5416.7238403798  1.51E-01
     9 Broy./Diag. 0.80E-01    1.5     0.00108205     -5417.4593940828 -7.36E-01
    10 Broy./Diag. 0.80E-01    1.5     0.00414701     -5417.3425339435  1.17E-01
    11 Broy./Diag. 0.80E-01    1.5     0.00081588     -5417.4782880613 -1.36E-01
    12 Broy./Diag. 0.80E-01    1.5     0.00252256     -5417.3423358992  1.36E-01
    13 Broy./Diag. 0.80E-01    1.5     0.00291292     -5417.7244215437 -3.82E-01
    14 Broy./Diag. 0.80E-01    1.5     0.00538942     -5417.7120026034  1.24E-02
    15 Broy./Diag. 0.80E-01    1.5     0.00269861     -5417.7604026866 -4.84E-02
    16 Broy./Diag. 0.80E-01    1.5     0.00758671     -5417.7260390727  3.44E-02
    17 Broy./Diag. 0.80E-01    1.5     0.00387060     -5417.6656941910  6.03E-02
[...]
   131 Broy./Diag. 0.80E-01    1.5     0.00168245     -5417.8562242035 -3.14E-02
   132 Broy./Diag. 0.80E-01    1.5     0.00253515     -5417.8700718001 -1.38E-02
   133 Broy./Diag. 0.80E-01    1.5     0.00149426     -5417.8932751310 -2.32E-02
   134 Broy./Diag. 0.80E-01    1.5     0.00860155     -5417.9008743235 -7.60E-03
   135 Broy./Diag. 0.80E-01    1.5     0.03399433     -5417.9253397119 -2.45E-02
   136 Broy./Diag. 0.80E-01    1.5     0.02334676     -5417.7851334370  1.40E-01
   137 Broy./Diag. 0.80E-01    1.5     0.00706517     -5417.7886529813 -3.52E-03
   138 Broy./Diag. 0.80E-01    1.5     0.00379384     -5417.8237758376 -3.51E-02
   139 Broy./Diag. 0.80E-01    1.5     0.00174624     -5417.8021823867  2.16E-02
   140 Broy./Diag. 0.80E-01    1.5     0.00802905     -5417.7988412279  3.34E-03
   141 Broy./Diag. 0.80E-01    1.5     0.00717514     -5417.7796060366  1.92E-02
   142 Broy./Diag. 0.80E-01    1.5     0.01043712     -5417.7700347908  9.57E-03
   143 Broy./Diag. 0.80E-01    1.5     0.02058837     -5417.6576520609  1.12E-01
   144 Broy./Diag. 0.80E-01    1.5     0.00076097     -5417.7634533993 -1.06E-01
   145 Broy./Diag. 0.80E-01    1.5     0.00665649     -5417.7510769697  1.24E-02
   146 Broy./Diag. 0.80E-01    1.5     0.01034538     -5417.7511591214 -8.22E-05
   147 Broy./Diag. 0.80E-01    1.5     0.00808239     -5417.6915427596  5.96E-02
   148 Broy./Diag. 0.80E-01    1.5     0.01177004     -5417.7058695635 -1.43E-02
   149 Broy./Diag. 0.80E-01    1.5     0.01067513     -5417.8399556027 -1.34E-01
   150 Broy./Diag. 0.80E-01    1.5     0.02681540     -5417.7648324076  7.51E-02
   151 Broy./Diag. 0.80E-01    1.5     0.01074841     -5417.9335326755 -1.69E-01
   152 Broy./Diag. 0.80E-01    1.5     0.00436154     -5417.9881573976 -5.46E-02
   153 Broy./Diag. 0.80E-01    1.5     0.00299673     -5418.0742446774 -8.61E-02
   154 Broy./Diag. 0.80E-01    1.5     0.00570329     -5418.0409210746  3.33E-02
   155 Broy./Diag. 0.80E-01    1.5     0.00063093     -5417.8928485631  1.48E-01
   156 Broy./Diag. 0.80E-01    1.5     0.01781203     -5417.9196316746 -2.68E-02
   157 Broy./Diag. 0.80E-01    1.5     0.00335786     -5417.8102034782  1.09E-01
   158 Broy./Diag. 0.80E-01    1.5     0.00172698     -5417.7953366373  1.49E-02
   159 Broy./Diag. 0.80E-01    1.5     0.01101596     -5417.8055770941 -1.02E-02
   160 Broy./Diag. 0.80E-01    1.5     0.00135004     -5417.7688295165  3.67E-02
   161 Broy./Diag. 0.80E-01    1.5     0.01221238     -5417.7924463246 -2.36E-02
   162 Broy./Diag. 0.80E-01    1.5     0.00399414     -5417.7904960225  1.95E-03
   163 Broy./Diag. 0.80E-01    1.5     0.01046383     -5417.7660966668  2.44E-02
   164 Broy./Diag. 0.80E-01    1.5     0.01103884     -5417.7145581401  5.15E-02
   165 Broy./Diag. 0.80E-01    1.5     0.00676464     -5417.7556022947 -4.10E-02
   166 Broy./Diag. 0.80E-01    1.5     0.00375653     -5417.7811959293 -2.56E-02
   167 Broy./Diag. 0.80E-01    1.5     0.00219045     -5417.7817381210 -5.42E-04
   168 Broy./Diag. 0.80E-01    1.5     0.02042705     -5417.7904135564 -8.68E-03
   169 Broy./Diag. 0.80E-01    1.5     0.01095133     -5417.7378087368  5.26E-02
   170 Broy./Diag. 0.80E-01    1.5     0.00705941     -5417.7502333686 -1.24E-02
   171 Broy./Diag. 0.80E-01    1.5     0.00362119     -5417.7516450572 -1.41E-03
   172 Broy./Diag. 0.80E-01    1.5     0.00916959     -5417.6919657005  5.97E-02
   173 Broy./Diag. 0.80E-01    1.5     0.00264568     -5417.7702357430 -7.83E-02
   174 Broy./Diag. 0.80E-01    1.5     0.01320158     -5417.8007166856 -3.05E-02
   175 Broy./Diag. 0.80E-01    1.5     0.01003487     -5417.8237439381 -2.30E-02
   176 Broy./Diag. 0.80E-01    1.5     0.00732183     -5417.8564039364 -3.27E-02
   177 Broy./Diag. 0.80E-01    1.5     0.00362167     -5417.8758706456 -1.95E-02
   178 Broy./Diag. 0.80E-01    1.5     0.00317803     -5417.8653050593  1.06E-02
   179 Broy./Diag. 0.80E-01    1.5     0.00531584     -5417.8245362827  4.08E-02
   180 Broy./Diag. 0.80E-01    1.5     0.00713756     -5417.8037466457  2.08E-02
   181 Broy./Diag. 0.80E-01    1.5     0.00342324     -5417.7172563870  8.65E-02
   182 Broy./Diag. 0.80E-01    1.5     0.00281792     -5417.7736918593 -5.64E-02
   183 Broy./Diag. 0.80E-01    1.5     0.00371968     -5417.8030397043 -2.93E-02
   184 Broy./Diag. 0.80E-01    1.5     0.00923777     -5417.9161237352 -1.13E-01
   185 Broy./Diag. 0.80E-01    1.5     0.00160878     -5417.9302055175 -1.41E-02
   186 Broy./Diag. 0.80E-01    1.5     0.00249255     -5417.9358602240 -5.65E-03
   187 Broy./Diag. 0.80E-01    1.5     0.00430522     -5418.0992816349 -1.63E-01
   188 Broy./Diag. 0.80E-01    1.5     0.00283625     -5418.1108346251 -1.16E-02
   189 Broy./Diag. 0.80E-01    1.5     0.00323112     -5418.0575926370  5.32E-02
   190 Broy./Diag. 0.80E-01    1.5     0.00278185     -5418.0181292153  3.95E-02
   191 Broy./Diag. 0.80E-01    1.5     0.00084172     -5417.9435857350  7.45E-02
   192 Broy./Diag. 0.80E-01    1.5     0.00639770     -5417.8517322064  9.19E-02
   193 Broy./Diag. 0.80E-01    1.5     0.01175158     -5417.8678416433 -1.61E-02
   194 Broy./Diag. 0.80E-01    1.5     0.00248442     -5418.2099924174 -3.42E-01
   195 Broy./Diag. 0.80E-01    1.5     0.01564795     -5418.2518444419 -4.19E-02
   196 Broy./Diag. 0.80E-01    1.5     0.00287643     -5418.1749103195  7.69E-02
   197 Broy./Diag. 0.80E-01    1.5     0.00544322     -5417.9885281491  1.86E-01
   198 Broy./Diag. 0.80E-01    1.5     0.00287796     -5417.8449100366  1.44E-01
   199 Broy./Diag. 0.80E-01    1.5     0.00320646     -5417.8735020971 -2.86E-02
   200 Broy./Diag. 0.80E-01    1.5     0.00058213     -5417.9070978734 -3.36E-02
   201 Broy./Diag. 0.80E-01    1.5     0.00090552     -5417.8955506706  1.15E-02
   202 Broy./Diag. 0.80E-01    1.5     0.00142124     -5417.7703280920  1.25E-01
   203 Broy./Diag. 0.80E-01    1.5     0.01105045     -5417.7271497932  4.32E-02
   204 Broy./Diag. 0.80E-01    1.5     0.00543166     -5417.7867275501 -5.96E-02
   205 Broy./Diag. 0.80E-01    1.5     0.00753183     -5417.8249791271 -3.83E-02
   206 Broy./Diag. 0.80E-01    1.5     0.00208178     -5417.7881214109  3.69E-02
   207 Broy./Diag. 0.80E-01    1.5     0.00457338     -5417.7824988263  5.62E-03
   208 Broy./Diag. 0.80E-01    1.5     0.00701416     -5417.7654385906  1.71E-02
   209 Broy./Diag. 0.80E-01    1.5     0.02962667     -5417.7440137779  2.14E-02
   210 Broy./Diag. 0.80E-01    1.5     0.01565380     -5417.7525054891 -8.49E-03
   211 Broy./Diag. 0.80E-01    1.5     0.00385669     -5417.8665188661 -1.14E-01
   212 Broy./Diag. 0.80E-01    1.5     0.00127660     -5417.8482615190  1.83E-02
   213 Broy./Diag. 0.80E-01    1.5     0.01838634     -5417.9284507146 -8.02E-02
   214 Broy./Diag. 0.80E-01    1.5     0.00282088     -5417.8858687236  4.26E-02
   215 Broy./Diag. 0.80E-01    1.5     0.00392578     -5418.0001395803 -1.14E-01
   216 Broy./Diag. 0.80E-01    1.5     0.00474764     -5417.9004073724  9.97E-02
   217 Broy./Diag. 0.80E-01    1.5     0.00387526     -5417.8842264975  1.62E-02
   218 Broy./Diag. 0.80E-01    1.5     0.00198680     -5417.8892316022 -5.01E-03
   219 Broy./Diag. 0.80E-01    1.5     0.00422351     -5417.8966523819 -7.42E-03
   220 Broy./Diag. 0.80E-01    1.5     0.00110376     -5417.8719353795  2.47E-02
   221 Broy./Diag. 0.80E-01    1.5     0.00205292     -5417.8482150547  2.37E-02
   222 Broy./Diag. 0.80E-01    1.5     0.00335365     -5417.8233061089  2.49E-02
   223 Broy./Diag. 0.80E-01    1.5     0.00386508     -5417.7252008618  9.81E-02
   224 Broy./Diag. 0.80E-01    1.5     0.00409813     -5417.8572265673 -1.32E-01
   225 Broy./Diag. 0.80E-01    1.5     0.00381305     -5417.9793533653 -1.22E-01
   226 Broy./Diag. 0.80E-01    1.5     0.00247268     -5417.9340632692  4.53E-02
   227 Broy./Diag. 0.80E-01    1.5     0.01968765     -5417.9743767123 -4.03E-02
   228 Broy./Diag. 0.80E-01    1.5     0.00884188     -5418.1799600210 -2.06E-01
   229 Broy./Diag. 0.80E-01    1.5     0.02345933     -5418.0524637726  1.27E-01
   230 Broy./Diag. 0.80E-01    1.5     0.02045056     -5418.1070460667 -5.46E-02
   231 Broy./Diag. 0.80E-01    1.5     0.00408043     -5417.9845781663  1.22E-01
   232 Broy./Diag. 0.80E-01    1.5     0.00515563     -5418.0129029094 -2.83E-02
   233 Broy./Diag. 0.80E-01    1.5     0.00585022     -5418.0134606323 -5.58E-04
   234 Broy./Diag. 0.80E-01    1.5     0.00607652     -5418.2102328783 -1.97E-01
   235 Broy./Diag. 0.80E-01    1.5     0.01626812     -5418.2447236568 -3.45E-02
   236 Broy./Diag. 0.80E-01    1.5     0.01241867     -5418.4419403057 -1.97E-01
   237 Broy./Diag. 0.80E-01    1.5     0.01880700     -5418.4824671661 -4.05E-02
   238 Broy./Diag. 0.80E-01    1.5     0.00780626     -5418.7343432658 -2.52E-01
   239 Broy./Diag. 0.80E-01    1.5     0.01351693     -5418.5875153618  1.47E-01
   240 Broy./Diag. 0.80E-01    1.5     0.00767902     -5418.5354262245  5.21E-02
   241 Broy./Diag. 0.80E-01    1.5     0.00692409     -5418.2864406012  2.49E-01
   242 Broy./Diag. 0.80E-01    1.5     0.02023821     -5418.5051738505 -2.19E-01
   243 Broy./Diag. 0.80E-01    1.5     0.00353022     -5418.6619915678 -1.57E-01
   244 Broy./Diag. 0.80E-01    1.5     0.00829100     -5418.6605182782  1.47E-03
   245 Broy./Diag. 0.80E-01    1.5     0.02087674     -5418.6568177683  3.70E-03
   246 Broy./Diag. 0.80E-01    1.5     0.04012024     -5418.8227613610 -1.66E-01
   247 Broy./Diag. 0.80E-01    1.5     0.01599671     -5418.2560973169  5.67E-01
   248 Broy./Diag. 0.80E-01    1.5     0.01099429     -5418.4246641354 -1.69E-01
   249 Broy./Diag. 0.80E-01    1.5     0.03196680     -5418.2645258658  1.60E-01
   250 Broy./Diag. 0.80E-01    1.5     0.01479074     -5418.3452307906 -8.07E-02
   251 Broy./Diag. 0.80E-01    1.5     0.02465275     -5418.5084454818 -1.63E-01
   252 Broy./Diag. 0.80E-01    1.5     0.02680174     -5418.7665499085 -2.58E-01
   253 Broy./Diag. 0.80E-01    1.5     0.01569213     -5418.6861882550  8.04E-02
   254 Broy./Diag. 0.80E-01    1.5     0.03139378     -5418.8175018250 -1.31E-01
   255 Broy./Diag. 0.80E-01    1.5     0.02563328     -5419.1923282946 -3.75E-01
   256 Broy./Diag. 0.80E-01    1.5     0.01026926     -5419.0658581595  1.26E-01
   257 Broy./Diag. 0.80E-01    1.5     0.01074959     -5418.7374298375  3.28E-01
   258 Broy./Diag. 0.80E-01    1.5     0.02379895     -5418.7834115981 -4.60E-02
   259 Broy./Diag. 0.80E-01    1.5     0.00905009     -5419.2533241237 -4.70E-01
   260 Broy./Diag. 0.80E-01    1.5     0.05190790     -5418.6976649884  5.56E-01
   261 Broy./Diag. 0.80E-01    1.5     0.04670494     -5418.8037301985 -1.06E-01
   262 Broy./Diag. 0.80E-01    1.5     0.01533991     -5418.8104466508 -6.72E-03
   263 Broy./Diag. 0.80E-01    1.5     0.04656593     -5419.1728789938 -3.62E-01
   264 Broy./Diag. 0.80E-01    1.5     0.04044450     -5419.6947324086 -5.22E-01
   265 Broy./Diag. 0.80E-01    1.5     0.01439037     -5419.2969634742  3.98E-01
   266 Broy./Diag. 0.80E-01    1.5     0.01928789     -5419.0079928124  2.89E-01
   267 Broy./Diag. 0.80E-01    1.5     0.02868525     -5418.9598751929  4.81E-02
   268 Broy./Diag. 0.80E-01    1.5     0.00562472     -5419.2561852287 -2.96E-01
   269 Broy./Diag. 0.80E-01    1.5     0.01977132     -5418.9450369616  3.11E-01
   270 Broy./Diag. 0.80E-01    1.5     0.06802194     -5418.3632285481  5.82E-01
   271 Broy./Diag. 0.80E-01    1.5     0.06294097     -5417.8157363241  5.47E-01
   272 Broy./Diag. 0.80E-01    1.5     0.02233540     -5418.2801125984 -4.64E-01
   273 Broy./Diag. 0.80E-01    1.5     0.02273162     -5417.9177417482  3.62E-01
   274 Broy./Diag. 0.80E-01    1.5     0.00681509     -5417.7186302228  1.99E-01
   275 Broy./Diag. 0.80E-01    1.5     0.01042169     -5417.4780894949  2.41E-01
   276 Broy./Diag. 0.80E-01    1.5     0.00385199     -5417.2181291967  2.60E-01
   277 Broy./Diag. 0.80E-01    1.5     0.01097867     -5417.1022837650  1.16E-01
   278 Broy./Diag. 0.80E-01    1.5     0.00520198     -5417.3137135497 -2.11E-01
   279 Broy./Diag. 0.80E-01    1.5     0.03033304     -5418.0827325362 -7.69E-01
   280 Broy./Diag. 0.80E-01    1.5     0.03502985     -5417.8070291305  2.76E-01
   281 Broy./Diag. 0.80E-01    1.5     0.03236446     -5418.7868685837 -9.80E-01
   282 Broy./Diag. 0.80E-01    1.5     0.00468574     -5418.3261522740  4.61E-01
   283 Broy./Diag. 0.80E-01    1.5     0.02728399     -5418.0899535303  2.36E-01
   284 Broy./Diag. 0.80E-01    1.5     0.01255355     -5418.4712875973 -3.81E-01
   285 Broy./Diag. 0.80E-01    1.5     0.01417176     -5418.1325266946  3.39E-01
   286 Broy./Diag. 0.80E-01    1.5     0.02720152     -5418.8871706181 -7.55E-01
   287 Broy./Diag. 0.80E-01    1.5     0.03078849     -5418.9492202034 -6.20E-02
   288 Broy./Diag. 0.80E-01    1.5     0.03507387     -5418.6457905369  3.03E-01
   289 Broy./Diag. 0.80E-01    1.5     0.07148739     -5417.8743885042  7.71E-01
   290 Broy./Diag. 0.80E-01    1.5     0.05164033     -5417.8310176553  4.34E-02
   291 Broy./Diag. 0.80E-01    1.5     0.00781588     -5418.7949759838 -9.64E-01
   292 Broy./Diag. 0.80E-01    1.5     0.01375846     -5418.3734469464  4.22E-01
   293 Broy./Diag. 0.80E-01    1.5     0.01635492     -5418.3809723835 -7.53E-03
   294 Broy./Diag. 0.80E-01    1.5     0.04405507     -5418.9133248652 -5.32E-01
   295 Broy./Diag. 0.80E-01    1.5     0.03237521     -5418.9772967449 -6.40E-02
   296 Broy./Diag. 0.80E-01    1.5     0.03369914     -5419.7639710819 -7.87E-01
   297 Broy./Diag. 0.80E-01    1.5     0.15696207     -5419.1773201331  5.87E-01
   298 Broy./Diag. 0.80E-01    1.5     0.18259878     -5417.6775657695  1.50E+00
   299 Broy./Diag. 0.80E-01    1.5     0.01727825     -5416.5609829328  1.12E+00
   300 Broy./Diag. 0.80E-01    1.5     0.02345052     -5419.2870118496 -2.73E+00
   301 Broy./Diag. 0.80E-01    1.5     0.01064314     -5419.3620495031 -7.50E-02
   302 Broy./Diag. 0.80E-01    1.5     0.03687207     -5418.4820903895  8.80E-01
   303 Broy./Diag. 0.80E-01    1.5     0.03067147     -5418.9567554201 -4.75E-01
   304 Broy./Diag. 0.80E-01    1.5     0.06120274     -5419.0762572862 -1.20E-01
   305 Broy./Diag. 0.80E-01    1.5     0.00553618     -5418.8043987892  2.72E-01
   306 Broy./Diag. 0.80E-01    1.5     0.03503161     -5418.3476594066  4.57E-01
   307 Broy./Diag. 0.80E-01    1.5     0.02997294     -5419.3203488907 -9.73E-01
   308 Broy./Diag. 0.80E-01    1.5     0.00728990     -5419.8403473386 -5.20E-01
   309 Broy./Diag. 0.80E-01    1.5     0.01481787     -5419.3417929039  4.99E-01
   310 Broy./Diag. 0.80E-01    1.5     0.00302209     -5417.7699546474  1.57E+00
   311 Broy./Diag. 0.80E-01    1.5     0.01109142     -5417.7345554960  3.54E-02
   312 Broy./Diag. 0.80E-01    1.5     0.02781238     -5417.6836762643  5.09E-02
   313 Broy./Diag. 0.80E-01    1.5     0.06421273     -5417.7842089045 -1.01E-01
   314 Broy./Diag. 0.80E-01    1.5     0.03736960     -5417.0903473848  6.94E-01
   315 Broy./Diag. 0.80E-01    1.5     0.02178941     -5417.3394803014 -2.49E-01
   316 Broy./Diag. 0.80E-01    1.5     0.00678173     -5417.0772119029  2.62E-01
   317 Broy./Diag. 0.80E-01    1.5     0.02365729     -5417.1637203361 -8.65E-02
   318 Broy./Diag. 0.80E-01    1.5     0.01101293     -5417.3440025323 -1.80E-01
   319 Broy./Diag. 0.80E-01    1.5     0.00819587     -5417.3215128822  2.25E-02
   320 Broy./Diag. 0.80E-01    1.5     0.00628986     -5417.3624000306 -4.09E-02
   321 Broy./Diag. 0.80E-01    1.5     0.00363092     -5417.4622635041 -9.99E-02
   322 Broy./Diag. 0.80E-01    1.5     0.00999393     -5417.2156481855  2.47E-01
   323 Broy./Diag. 0.80E-01    1.5     0.01907067     -5417.3831481143 -1.67E-01
   324 Broy./Diag. 0.80E-01    1.5     0.01119292     -5417.5579734615 -1.75E-01
   325 Broy./Diag. 0.80E-01    1.5     0.01845442     -5417.9140467185 -3.56E-01
   326 Broy./Diag. 0.80E-01    1.5     0.01263158     -5417.5651098519  3.49E-01
   327 Broy./Diag. 0.80E-01    1.5     0.02502405     -5417.9621770826 -3.97E-01
   328 Broy./Diag. 0.80E-01    1.5     0.02477391     -5417.5478967146  4.14E-01
   329 Broy./Diag. 0.80E-01    1.5     0.00733134     -5418.1232363589 -5.75E-01
   330 Broy./Diag. 0.80E-01    1.5     0.02239225     -5418.3224017408 -1.99E-01
   331 Broy./Diag. 0.80E-01    1.5     0.03527065     -5418.4581080953 -1.36E-01
   332 Broy./Diag. 0.80E-01    1.5     0.00968037     -5418.0014126420  4.57E-01
   333 Broy./Diag. 0.80E-01    1.5     0.01100425     -5418.2236659237 -2.22E-01
   334 Broy./Diag. 0.80E-01    1.5     0.01981146     -5418.1777238606  4.59E-02
   335 Broy./Diag. 0.80E-01    1.5     0.01884978     -5417.7496496123  4.28E-01
   336 Broy./Diag. 0.80E-01    1.5     0.00524990     -5418.1069428073 -3.57E-01
   337 Broy./Diag. 0.80E-01    1.5     0.07818913     -5417.9867558548  1.20E-01
   338 Broy./Diag. 0.80E-01    1.5     0.10157332     -5417.0896351545  8.97E-01
   339 Broy./Diag. 0.80E-01    1.5     0.02863740     -5419.2522621415 -2.16E+00
   340 Broy./Diag. 0.80E-01    1.5     0.07653993     -5415.1846042335  4.07E+00
   341 Broy./Diag. 0.80E-01    1.5     0.02596357     -5418.6203078156 -3.44E+00
   342 Broy./Diag. 0.80E-01    1.5     0.11033463     -5419.4676780060 -8.47E-01
   343 Broy./Diag. 0.80E-01    1.5     0.08236192     -5420.3910648804 -9.23E-01
   344 Broy./Diag. 0.80E-01    1.5     0.09862529     -5418.6036984414  1.79E+00
   345 Broy./Diag. 0.80E-01    1.5     0.08723798     -5416.1368645849  2.47E+00
   346 Broy./Diag. 0.80E-01    1.5     0.04590871     -5418.1996273236 -2.06E+00
   347 Broy./Diag. 0.80E-01    1.5     0.01297253     -5417.9018105905  2.98E-01
   348 Broy./Diag. 0.80E-01    1.5     0.02542600     -5418.0325432050 -1.31E-01
   349 Broy./Diag. 0.80E-01    1.5     0.01778561     -5418.3469366721 -3.14E-01
   350 Broy./Diag. 0.80E-01    1.5     0.04155725     -5417.4130804112  9.34E-01
   351 Broy./Diag. 0.80E-01    1.5     0.03556707     -5417.7524595729 -3.39E-01
   352 Broy./Diag. 0.80E-01    1.5     0.14216864     -5418.0819268790 -3.29E-01
   353 Broy./Diag. 0.80E-01    1.5     0.13923302     -5419.6442416170 -1.56E+00
   354 Broy./Diag. 0.80E-01    1.5     0.06664106     -5418.2186452717  1.43E+00
   355 Broy./Diag. 0.80E-01    1.5     0.09074680     -5417.3434193330  8.75E-01
   356 Broy./Diag. 0.80E-01    1.5     0.03913515     -5418.1952738659 -8.52E-01
   357 Broy./Diag. 0.80E-01    1.5     0.01933818     -5416.6550672686  1.54E+00
   358 Broy./Diag. 0.80E-01    1.5     0.02440056     -5415.8706312444  7.84E-01
   359 Broy./Diag. 0.80E-01    1.5     0.01418909     -5416.6564904122 -7.86E-01
   360 Broy./Diag. 0.80E-01    1.5     0.01997331     -5417.7812412585 -1.12E+00
   361 Broy./Diag. 0.80E-01    1.5     0.01327570     -5417.7503147799  3.09E-02
   362 Broy./Diag. 0.80E-01    1.5     0.09831746     -5418.2723733922 -5.22E-01
   363 Broy./Diag. 0.80E-01    1.5     0.25863430     -5417.9981423515  2.74E-01
   364 Broy./Diag. 0.80E-01    1.5     0.27039398     -5403.1324472966  1.49E+01
   365 Broy./Diag. 0.80E-01    1.5     0.09118631     -5414.4047877510 -1.13E+01
   366 Broy./Diag. 0.80E-01    1.5     0.03127899     -5419.2084241622 -4.80E+00
   367 Broy./Diag. 0.80E-01    1.5     0.04606645     -5419.5286023780 -3.20E-01
   368 Broy./Diag. 0.80E-01    1.5     0.04573891     -5419.1447629447  3.84E-01
   369 Broy./Diag. 0.80E-01    1.5     0.06890992     -5417.9005045673  1.24E+00
   370 Broy./Diag. 0.80E-01    1.5     0.03146658     -5417.9229972942 -2.25E-02
   371 Broy./Diag. 0.80E-01    1.5     0.01721034     -5417.7334265872  1.90E-01
   372 Broy./Diag. 0.80E-01    1.5     0.09690324     -5417.9202442089 -1.87E-01
   373 Broy./Diag. 0.80E-01    1.5     0.08956389     -5418.0243873927 -1.04E-01
   374 Broy./Diag. 0.80E-01    1.5     0.18141655     -5415.1431677690  2.88E+00
   375 Broy./Diag. 0.80E-01    1.5     0.11339717     -5418.9822689093 -3.84E+00
   376 Broy./Diag. 0.80E-01    1.5     0.03612745     -5419.7281357952 -7.46E-01
