 DBCSR| CPU Multiplication driver                                           XSMM
 DBCSR| Multrec recursion limit                                              512
 DBCSR| Multiplication stack size                                           1000
 DBCSR| Maximum elements for images                                    UNLIMITED
 DBCSR| Multiplicative factor virtual images                                   1
 DBCSR| Use multiplication densification                                       T
 DBCSR| Multiplication size stacks                                             3
 DBCSR| Number of 3D layers                                               SINGLE
 DBCSR| Use MPI memory allocation                                              T
 DBCSR| Use RMA algorithm                                                      F
 DBCSR| Use Communication thread                                               T
 DBCSR| Communication thread load                                             87


  **** **** ******  **  PROGRAM STARTED AT               2022-11-28 15:29:19.632
 ***** ** ***  *** **   PROGRAM STARTED ON                         node-c12o-004
 **    ****   ******    PROGRAM STARTED BY                               mmm1169
 ***** **    ** ** **   PROGRAM PROCESS ID                                 70498
  **** **  *******  **  PROGRAM STARTED IN /lustre/scratch/mmm1169/work/other/cp
                                           2k_forum/ni_bulk/final/slab/multiplic
                                           ity-25/optimise-alpha-scf-1e-3-rs-1e-
                                           4/folder_1E-1

 CP2K| version string:                                          CP2K version 7.1
 CP2K| source code revision number:                                  git:e635599
 CP2K| cp2kflags: libint fftw3 libxc elpa parallel mpi3 scalapack quip xsmm spgl
 CP2K|            ib
 CP2K| is freely available from                            https://www.cp2k.org/
 CP2K| Program compiled at                          Wed  8 Jan 12:34:35 GMT 2020
 CP2K| Program compiled on                                               login01
 CP2K| Program compiled for                                                local
 CP2K| Data directory path     /shared/ucl/apps/cp2k/7.1/gnu-4.9.2/cp2k-7.1/data
 CP2K| Input file name                                                 input.inp

 GLOBAL| Force Environment number                                              1
 GLOBAL| Basis set file name                                        BASIS_MOLOPT
 GLOBAL| Potential file name                                      GTH_POTENTIALS
 GLOBAL| MM Potential file name                                     MM_POTENTIAL
 GLOBAL| Coordinate file name                                      __STD_INPUT__
 GLOBAL| Method name                                                        CP2K
 GLOBAL| Project name                                                    Ni_bulk
 GLOBAL| Preferred FFT library                                             FFTW3
 GLOBAL| Preferred diagonalization lib.                                     ELPA
 GLOBAL| Run type                                                         ENERGY
 GLOBAL| All-to-all communication in single precision                          F
 GLOBAL| FFTs using library dependent lengths                                  F
 GLOBAL| Global print level                                               MEDIUM
 GLOBAL| MPI I/O enabled                                                       T
 GLOBAL| Total number of message passing processes                            20
 GLOBAL| Number of threads for this process                                    1
 GLOBAL| This output is from process                                           0
 GLOBAL| CPU model name                 Intel(R) Xeon(R) Gold 6248 CPU @ 2.50GHz
 GLOBAL| CPUID                                                              1003

 MEMORY| system memory details [Kb]
 MEMORY|                        rank 0           min           max       average
 MEMORY| MemTotal            197730152     197730152     197730152     197730152
 MEMORY| MemFree             179130952     179130952     179130952     179130952
 MEMORY| Buffers                     0             0             0             0
 MEMORY| Cached               11292536      11292536      11292536      11292536
 MEMORY| Slab                  1185600       1185600       1185600       1185600
 MEMORY| SReclaimable           462392        462392        462392        462392
 MEMORY| MemLikelyFree       190885880     190885880     190885880     190885880


 *** Fundamental physical constants (SI units) ***

 *** Literature: B. J. Mohr and B. N. Taylor,
 ***             CODATA recommended values of the fundamental physical
 ***             constants: 2006, Web Version 5.1
 ***             http://physics.nist.gov/constants

 Speed of light in vacuum [m/s]                             2.99792458000000E+08
 Magnetic constant or permeability of vacuum [N/A**2]       1.25663706143592E-06
 Electric constant or permittivity of vacuum [F/m]          8.85418781762039E-12
 Planck constant (h) [J*s]                                  6.62606896000000E-34
 Planck constant (h-bar) [J*s]                              1.05457162825177E-34
 Elementary charge [C]                                      1.60217648700000E-19
 Electron mass [kg]                                         9.10938215000000E-31
 Electron g factor [ ]                                     -2.00231930436220E+00
 Proton mass [kg]                                           1.67262163700000E-27
 Fine-structure constant                                    7.29735253760000E-03
 Rydberg constant [1/m]                                     1.09737315685270E+07
 Avogadro constant [1/mol]                                  6.02214179000000E+23
 Boltzmann constant [J/K]                                   1.38065040000000E-23
 Atomic mass unit [kg]                                      1.66053878200000E-27
 Bohr radius [m]                                            5.29177208590000E-11

 *** Conversion factors ***

 [u] -> [a.u.]                                              1.82288848426455E+03
 [Angstrom] -> [Bohr] = [a.u.]                              1.88972613288564E+00
 [a.u.] = [Bohr] -> [Angstrom]                              5.29177208590000E-01
 [a.u.] -> [s]                                              2.41888432650478E-17
 [a.u.] -> [fs]                                             2.41888432650478E-02
 [a.u.] -> [J]                                              4.35974393937059E-18
 [a.u.] -> [N]                                              8.23872205491840E-08
 [a.u.] -> [K]                                              3.15774647902944E+05
 [a.u.] -> [kJ/mol]                                         2.62549961709828E+03
 [a.u.] -> [kcal/mol]                                       6.27509468713739E+02
 [a.u.] -> [Pa]                                             2.94210107994716E+13
 [a.u.] -> [bar]                                            2.94210107994716E+08
 [a.u.] -> [atm]                                            2.90362800883016E+08
 [a.u.] -> [eV]                                             2.72113838565563E+01
 [a.u.] -> [Hz]                                             6.57968392072181E+15
 [a.u.] -> [1/cm] (wave numbers)                            2.19474631370540E+05
 [a.u./Bohr**2] -> [1/cm]                                   5.14048714338585E+03
 

 CELL_TOP| Volume [angstrom^3]:                                          983.250
 CELL_TOP| Vector a [angstrom     7.012     0.000     0.000    |a| =       7.012
 CELL_TOP| Vector b [angstrom     0.000     7.012     0.000    |b| =       7.012
 CELL_TOP| Vector c [angstrom     0.000     0.000    20.000    |c| =      20.000
 CELL_TOP| Angle (b,c), alpha [degree]:                                   90.000
 CELL_TOP| Angle (a,c), beta  [degree]:                                   90.000
 CELL_TOP| Angle (a,b), gamma [degree]:                                   90.000
 CELL_TOP| Numerically orthorhombic:                                         YES

 GENERATE|  Preliminary Number of Bonds generated:                             0
 GENERATE|  Achieved consistency in connectivity generation.

 CELL| Volume [angstrom^3]:                                              983.250
 CELL| Vector a [angstrom]:       7.012     0.000     0.000    |a| =       7.012
 CELL| Vector b [angstrom]:       0.000     7.012     0.000    |b| =       7.012
 CELL| Vector c [angstrom]:       0.000     0.000    20.000    |c| =      20.000
 CELL| Angle (b,c), alpha [degree]:                                       90.000
 CELL| Angle (a,c), beta  [degree]:                                       90.000
 CELL| Angle (a,b), gamma [degree]:                                       90.000
 CELL| Numerically orthorhombic:                                             YES

 CELL_REF| Volume [angstrom^3]:                                          983.250
 CELL_REF| Vector a [angstrom     7.012     0.000     0.000    |a| =       7.012
 CELL_REF| Vector b [angstrom     0.000     7.012     0.000    |b| =       7.012
 CELL_REF| Vector c [angstrom     0.000     0.000    20.000    |c| =      20.000
 CELL_REF| Angle (b,c), alpha [degree]:                                   90.000
 CELL_REF| Angle (a,c), beta  [degree]:                                   90.000
 CELL_REF| Angle (a,b), gamma [degree]:                                   90.000
 CELL_REF| Numerically orthorhombic:                                         YES

 *******************************************************************************
 *******************************************************************************
 **                                                                           **
 **     #####                         ##              ##                      **
 **    ##   ##            ##          ##              ##                      **
 **   ##     ##                       ##            ######                    **
 **   ##     ##  ##   ##  ##   #####  ##  ##   ####   ##    #####    #####    **
 **   ##     ##  ##   ##  ##  ##      ## ##   ##      ##   ##   ##  ##   ##   **
 **   ##  ## ##  ##   ##  ##  ##      ####     ###    ##   ######   ######    **
 **    ##  ###   ##   ##  ##  ##      ## ##      ##   ##   ##       ##        **
 **     #######   #####   ##   #####  ##  ##  ####    ##    #####   ##        **
 **           ##                                                    ##        **
 **                                                                           **
 **                                                ... make the atoms dance   **
 **                                                                           **
 **            Copyright (C) by CP2K developers group (2000 - 2019)           **
 **                                                                           **
 *******************************************************************************

 *** WARNING in qs_environment.F:1296 :: More added MOs requested for beta ***
 *** spin than available.                                                  ***


 *** WARNING in qs_environment.F:1310 :: More added MOs requested than ***
 *** available. The full set of unoccupied MOs will be used.           ***


 DFT| Spin unrestricted (spin-polarized) Kohn-Sham calculation               UKS
 DFT| Multiplicity                                                            25
 DFT| Number of spin states                                                    2
 DFT| Charge                                                                   0
 DFT| Self-interaction correction (SIC)                                       NO
 DFT| Cutoffs: density                                              1.000000E-10
 DFT|          gradient                                             1.000000E-10
 DFT|          tau                                                  1.000000E-10
 DFT|          cutoff_smoothing_range                               0.000000E+00
 DFT| XC density smoothing                                                  NONE
 DFT| XC derivatives                                                          PW
 FUNCTIONAL| ROUTINE=NEW
 FUNCTIONAL| PBE:
 FUNCTIONAL| J.P.Perdew, K.Burke, M.Ernzerhof, Phys. Rev. Letter, vol. 77, n 18,
 FUNCTIONAL|  pp. 3865-3868, (1996){spin polarized}                             

 QS| Method:                                                                 GPW
 QS| Density plane wave grid type                        NON-SPHERICAL FULLSPACE
 QS| Number of grid levels:                                                    5
 QS| Density cutoff [a.u.]:                                                300.0
 QS| Multi grid cutoff [a.u.]: 1) grid level                               300.0
 QS|                           2) grid level                               100.0
 QS|                           3) grid level                                33.3
 QS|                           4) grid level                                11.1
 QS|                           5) grid level                                 3.7
 QS| Grid level progression factor:                                          3.0
 QS| Relative density cutoff [a.u.]:                                        30.0
 QS| Consistent realspace mapping and integration 
 QS| Interaction thresholds: eps_pgf_orb:                                1.0E-06
 QS|                         eps_filter_matrix:                          0.0E+00
 QS|                         eps_core_charge:                            1.0E-14
 QS|                         eps_rho_gspace:                             1.0E-12
 QS|                         eps_rho_rspace:                             1.0E-12
 QS|                         eps_gvg_rspace:                             1.0E-06
 QS|                         eps_ppl:                                    1.0E-02
 QS|                         eps_ppnl:                                   1.0E-08


 ATOMIC KIND INFORMATION

  1. Atomic kind: Ni_i                                  Number of atoms:      16

     Orbital Basis Set                                        DZVP-MOLOPT-SR-GTH

       Number of orbital shell sets:                                           1
       Number of orbital shells:                                               8
       Number of primitive Cartesian functions:                                6
       Number of Cartesian basis functions:                                   31
       Number of spherical basis functions:                                   26
       Norm type:                                                              2

       Normalised Cartesian orbitals:

                        Set   Shell   Orbital            Exponent    Coefficient

                          1       1    2s               10.077428      -0.684558
                                                         5.847736      -0.844524
                                                         2.494033       1.088856
                                                         0.988355       0.395503
                                                         0.344978       0.010224
                                                         0.099466      -0.003250

                          1       2    3s               10.077428       0.096747
                                                         5.847736       0.162504
                                                         2.494033      -0.297192
                                                         0.988355      -0.319752
                                                         0.344978       0.088318
                                                         0.099466       0.118587

                          1       3    4s               10.077428       0.036437
                                                         5.847736      -0.381480
                                                         2.494033       0.003759
                                                         0.988355      -1.048256
                                                         0.344978       0.855825
                                                         0.099466      -0.176350

                          1       4    3px              10.077428      -3.133913
                                                         5.847736       3.027656
                                                         2.494033       2.353227
                                                         0.988355       0.554184
                                                         0.344978       0.019462
                                                         0.099466      -0.000291
                          1       4    3py              10.077428      -3.133913
                                                         5.847736       3.027656
                                                         2.494033       2.353227
                                                         0.988355       0.554184
                                                         0.344978       0.019462
                                                         0.099466      -0.000291
                          1       4    3pz              10.077428      -3.133913
                                                         5.847736       3.027656
                                                         2.494033       2.353227
                                                         0.988355       0.554184
                                                         0.344978       0.019462
                                                         0.099466      -0.000291

                          1       5    4px              10.077428      -0.112729
                                                         5.847736      -0.114008
                                                         2.494033      -0.347303
                                                         0.988355      -0.110323
                                                         0.344978       0.154096
                                                         0.099466       0.058386
                          1       5    4py              10.077428      -0.112729
                                                         5.847736      -0.114008
                                                         2.494033      -0.347303
                                                         0.988355      -0.110323
                                                         0.344978       0.154096
                                                         0.099466       0.058386
                          1       5    4pz              10.077428      -0.112729
                                                         5.847736      -0.114008
                                                         2.494033      -0.347303
                                                         0.988355      -0.110323
                                                         0.344978       0.154096
                                                         0.099466       0.058386

                          1       6    4dx2             10.077428       8.232726
                                                         5.847736       9.105758
                                                         2.494033       2.849835
                                                         0.988355       0.554319
                                                         0.344978       0.067245
                                                         0.099466       0.001940
                          1       6    4dxy             10.077428      14.259500
                                                         5.847736      15.771636
                                                         2.494033       4.936060
                                                         0.988355       0.960109
                                                         0.344978       0.116472
                                                         0.099466       0.003360
                          1       6    4dxz             10.077428      14.259500
                                                         5.847736      15.771636
                                                         2.494033       4.936060
                                                         0.988355       0.960109
                                                         0.344978       0.116472
                                                         0.099466       0.003360
                          1       6    4dy2             10.077428       8.232726
                                                         5.847736       9.105758
                                                         2.494033       2.849835
                                                         0.988355       0.554319
                                                         0.344978       0.067245
                                                         0.099466       0.001940
                          1       6    4dyz             10.077428      14.259500
                                                         5.847736      15.771636
                                                         2.494033       4.936060
                                                         0.988355       0.960109
                                                         0.344978       0.116472
                                                         0.099466       0.003360
                          1       6    4dz2             10.077428       8.232726
                                                         5.847736       9.105758
                                                         2.494033       2.849835
                                                         0.988355       0.554319
                                                         0.344978       0.067245
                                                         0.099466       0.001940

                          1       7    5dx2             10.077428      -2.715373
                                                         5.847736      -4.020640
                                                         2.494033      -1.397569
                                                         0.988355      -0.076143
                                                         0.344978       0.033435
                                                         0.099466       0.026032
                          1       7    5dxy             10.077428      -4.703164
                                                         5.847736      -6.963952
                                                         2.494033      -2.420661
                                                         0.988355      -0.131883
                                                         0.344978       0.057911
                                                         0.099466       0.045088
                          1       7    5dxz             10.077428      -4.703164
                                                         5.847736      -6.963952
                                                         2.494033      -2.420661
                                                         0.988355      -0.131883
                                                         0.344978       0.057911
                                                         0.099466       0.045088
                          1       7    5dy2             10.077428      -2.715373
                                                         5.847736      -4.020640
                                                         2.494033      -1.397569
                                                         0.988355      -0.076143
                                                         0.344978       0.033435
                                                         0.099466       0.026032
                          1       7    5dyz             10.077428      -4.703164
                                                         5.847736      -6.963952
                                                         2.494033      -2.420661
                                                         0.988355      -0.131883
                                                         0.344978       0.057911
                                                         0.099466       0.045088
                          1       7    5dz2             10.077428      -2.715373
                                                         5.847736      -4.020640
                                                         2.494033      -1.397569
                                                         0.988355      -0.076143
                                                         0.344978       0.033435
                                                         0.099466       0.026032

                          1       8    5fx3             10.077428      -0.467694
                                                         5.847736       0.618100
                                                         2.494033       0.066069
                                                         0.988355       0.262898
                                                         0.344978       0.004720
                                                         0.099466       0.007748
                          1       8    5fx2y            10.077428      -1.045795
                                                         5.847736       1.382114
                                                         2.494033       0.147734
                                                         0.988355       0.587859
                                                         0.344978       0.010555
                                                         0.099466       0.017325
                          1       8    5fx2z            10.077428      -1.045795
                                                         5.847736       1.382114
                                                         2.494033       0.147734
                                                         0.988355       0.587859
                                                         0.344978       0.010555
                                                         0.099466       0.017325
                          1       8    5fxy2            10.077428      -1.045795
                                                         5.847736       1.382114
                                                         2.494033       0.147734
                                                         0.988355       0.587859
                                                         0.344978       0.010555
                                                         0.099466       0.017325
                          1       8    5fxyz            10.077428      -1.811371
                                                         5.847736       2.393892
                                                         2.494033       0.255883
                                                         0.988355       1.018201
                                                         0.344978       0.018282
                                                         0.099466       0.030008
                          1       8    5fxz2            10.077428      -1.045795
                                                         5.847736       1.382114
                                                         2.494033       0.147734
                                                         0.988355       0.587859
                                                         0.344978       0.010555
                                                         0.099466       0.017325
                          1       8    5fy3             10.077428      -0.467694
                                                         5.847736       0.618100
                                                         2.494033       0.066069
                                                         0.988355       0.262898
                                                         0.344978       0.004720
                                                         0.099466       0.007748
                          1       8    5fy2z            10.077428      -1.045795
                                                         5.847736       1.382114
                                                         2.494033       0.147734
                                                         0.988355       0.587859
                                                         0.344978       0.010555
                                                         0.099466       0.017325
                          1       8    5fyz2            10.077428      -1.045795
                                                         5.847736       1.382114
                                                         2.494033       0.147734
                                                         0.988355       0.587859
                                                         0.344978       0.010555
                                                         0.099466       0.017325
                          1       8    5fz3             10.077428      -0.467694
                                                         5.847736       0.618100
                                                         2.494033       0.066069
                                                         0.988355       0.262898
                                                         0.344978       0.004720
                                                         0.099466       0.007748

     GTH Potential information for                                   GTH-PBE-q18

       Description:                       Goedecker-Teter-Hutter pseudopotential
                                           Goedecker et al., PRB 54, 1703 (1996)
                                          Hartwigsen et al., PRB 58, 3641 (1998)
                                                      Krack, TCA 114, 145 (2005)

       Gaussian exponent of the core charge distribution:               4.081633
       Electronic configuration (s p d ...):                           4   6   8

       Parameters of the local part of the GTH pseudopotential:

                          rloc        C1          C2          C3          C4
                        0.350000    2.102166    0.648484

       Parameters of the non-local part of the GTH pseudopotential:

                   l      r(l)      h(i,j,l)

                   0    0.261295    0.622658    9.970227
                                    9.970227  -12.871507
                   1    0.224253  -11.142708   12.429566
                                   12.429566  -14.706861
                   2    0.215348  -12.628146

  2. Atomic kind: Ni_b                                  Number of atoms:      16

     Orbital Basis Set                                        DZVP-MOLOPT-SR-GTH

       Number of orbital shell sets:                                           1
       Number of orbital shells:                                               8
       Number of primitive Cartesian functions:                                6
       Number of Cartesian basis functions:                                   31
       Number of spherical basis functions:                                   26
       Norm type:                                                              2

       Normalised Cartesian orbitals:

                        Set   Shell   Orbital            Exponent    Coefficient

                          1       1    2s               10.077428      -0.684558
                                                         5.847736      -0.844524
                                                         2.494033       1.088856
                                                         0.988355       0.395503
                                                         0.344978       0.010224
                                                         0.099466      -0.003250

                          1       2    3s               10.077428       0.096747
                                                         5.847736       0.162504
                                                         2.494033      -0.297192
                                                         0.988355      -0.319752
                                                         0.344978       0.088318
                                                         0.099466       0.118587

                          1       3    4s               10.077428       0.036437
                                                         5.847736      -0.381480
                                                         2.494033       0.003759
                                                         0.988355      -1.048256
                                                         0.344978       0.855825
                                                         0.099466      -0.176350

                          1       4    3px              10.077428      -3.133913
                                                         5.847736       3.027656
                                                         2.494033       2.353227
                                                         0.988355       0.554184
                                                         0.344978       0.019462
                                                         0.099466      -0.000291
                          1       4    3py              10.077428      -3.133913
                                                         5.847736       3.027656
                                                         2.494033       2.353227
                                                         0.988355       0.554184
                                                         0.344978       0.019462
                                                         0.099466      -0.000291
                          1       4    3pz              10.077428      -3.133913
                                                         5.847736       3.027656
                                                         2.494033       2.353227
                                                         0.988355       0.554184
                                                         0.344978       0.019462
                                                         0.099466      -0.000291

                          1       5    4px              10.077428      -0.112729
                                                         5.847736      -0.114008
                                                         2.494033      -0.347303
                                                         0.988355      -0.110323
                                                         0.344978       0.154096
                                                         0.099466       0.058386
                          1       5    4py              10.077428      -0.112729
                                                         5.847736      -0.114008
                                                         2.494033      -0.347303
                                                         0.988355      -0.110323
                                                         0.344978       0.154096
                                                         0.099466       0.058386
                          1       5    4pz              10.077428      -0.112729
                                                         5.847736      -0.114008
                                                         2.494033      -0.347303
                                                         0.988355      -0.110323
                                                         0.344978       0.154096
                                                         0.099466       0.058386

                          1       6    4dx2             10.077428       8.232726
                                                         5.847736       9.105758
                                                         2.494033       2.849835
                                                         0.988355       0.554319
                                                         0.344978       0.067245
                                                         0.099466       0.001940
                          1       6    4dxy             10.077428      14.259500
                                                         5.847736      15.771636
                                                         2.494033       4.936060
                                                         0.988355       0.960109
                                                         0.344978       0.116472
                                                         0.099466       0.003360
                          1       6    4dxz             10.077428      14.259500
                                                         5.847736      15.771636
                                                         2.494033       4.936060
                                                         0.988355       0.960109
                                                         0.344978       0.116472
                                                         0.099466       0.003360
                          1       6    4dy2             10.077428       8.232726
                                                         5.847736       9.105758
                                                         2.494033       2.849835
                                                         0.988355       0.554319
                                                         0.344978       0.067245
                                                         0.099466       0.001940
                          1       6    4dyz             10.077428      14.259500
                                                         5.847736      15.771636
                                                         2.494033       4.936060
                                                         0.988355       0.960109
                                                         0.344978       0.116472
                                                         0.099466       0.003360
                          1       6    4dz2             10.077428       8.232726
                                                         5.847736       9.105758
                                                         2.494033       2.849835
                                                         0.988355       0.554319
                                                         0.344978       0.067245
                                                         0.099466       0.001940

                          1       7    5dx2             10.077428      -2.715373
                                                         5.847736      -4.020640
                                                         2.494033      -1.397569
                                                         0.988355      -0.076143
                                                         0.344978       0.033435
                                                         0.099466       0.026032
                          1       7    5dxy             10.077428      -4.703164
                                                         5.847736      -6.963952
                                                         2.494033      -2.420661
                                                         0.988355      -0.131883
                                                         0.344978       0.057911
                                                         0.099466       0.045088
                          1       7    5dxz             10.077428      -4.703164
                                                         5.847736      -6.963952
                                                         2.494033      -2.420661
                                                         0.988355      -0.131883
                                                         0.344978       0.057911
                                                         0.099466       0.045088
                          1       7    5dy2             10.077428      -2.715373
                                                         5.847736      -4.020640
                                                         2.494033      -1.397569
                                                         0.988355      -0.076143
                                                         0.344978       0.033435
                                                         0.099466       0.026032
                          1       7    5dyz             10.077428      -4.703164
                                                         5.847736      -6.963952
                                                         2.494033      -2.420661
                                                         0.988355      -0.131883
                                                         0.344978       0.057911
                                                         0.099466       0.045088
                          1       7    5dz2             10.077428      -2.715373
                                                         5.847736      -4.020640
                                                         2.494033      -1.397569
                                                         0.988355      -0.076143
                                                         0.344978       0.033435
                                                         0.099466       0.026032

                          1       8    5fx3             10.077428      -0.467694
                                                         5.847736       0.618100
                                                         2.494033       0.066069
                                                         0.988355       0.262898
                                                         0.344978       0.004720
                                                         0.099466       0.007748
                          1       8    5fx2y            10.077428      -1.045795
                                                         5.847736       1.382114
                                                         2.494033       0.147734
                                                         0.988355       0.587859
                                                         0.344978       0.010555
                                                         0.099466       0.017325
                          1       8    5fx2z            10.077428      -1.045795
                                                         5.847736       1.382114
                                                         2.494033       0.147734
                                                         0.988355       0.587859
                                                         0.344978       0.010555
                                                         0.099466       0.017325
                          1       8    5fxy2            10.077428      -1.045795
                                                         5.847736       1.382114
                                                         2.494033       0.147734
                                                         0.988355       0.587859
                                                         0.344978       0.010555
                                                         0.099466       0.017325
                          1       8    5fxyz            10.077428      -1.811371
                                                         5.847736       2.393892
                                                         2.494033       0.255883
                                                         0.988355       1.018201
                                                         0.344978       0.018282
                                                         0.099466       0.030008
                          1       8    5fxz2            10.077428      -1.045795
                                                         5.847736       1.382114
                                                         2.494033       0.147734
                                                         0.988355       0.587859
                                                         0.344978       0.010555
                                                         0.099466       0.017325
                          1       8    5fy3             10.077428      -0.467694
                                                         5.847736       0.618100
                                                         2.494033       0.066069
                                                         0.988355       0.262898
                                                         0.344978       0.004720
                                                         0.099466       0.007748
                          1       8    5fy2z            10.077428      -1.045795
                                                         5.847736       1.382114
                                                         2.494033       0.147734
                                                         0.988355       0.587859
                                                         0.344978       0.010555
                                                         0.099466       0.017325
                          1       8    5fyz2            10.077428      -1.045795
                                                         5.847736       1.382114
                                                         2.494033       0.147734
                                                         0.988355       0.587859
                                                         0.344978       0.010555
                                                         0.099466       0.017325
                          1       8    5fz3             10.077428      -0.467694
                                                         5.847736       0.618100
                                                         2.494033       0.066069
                                                         0.988355       0.262898
                                                         0.344978       0.004720
                                                         0.099466       0.007748

     GTH Potential information for                                   GTH-PBE-q18

       Description:                       Goedecker-Teter-Hutter pseudopotential
                                           Goedecker et al., PRB 54, 1703 (1996)
                                          Hartwigsen et al., PRB 58, 3641 (1998)
                                                      Krack, TCA 114, 145 (2005)

       Gaussian exponent of the core charge distribution:               4.081633
       Electronic configuration (s p d ...):                           4   6   8

       Parameters of the local part of the GTH pseudopotential:

                          rloc        C1          C2          C3          C4
                        0.350000    2.102166    0.648484

       Parameters of the non-local part of the GTH pseudopotential:

                   l      r(l)      h(i,j,l)

                   0    0.261295    0.622658    9.970227
                                    9.970227  -12.871507
                   1    0.224253  -11.142708   12.429566
                                   12.429566  -14.706861
                   2    0.215348  -12.628146


 MOLECULE KIND INFORMATION


 All atoms are their own molecule, skipping detailed information


 TOTAL NUMBERS AND MAXIMUM NUMBERS

  Total number of            - Atomic kinds:                                   2
                             - Atoms:                                         32
                             - Shell sets:                                    32
                             - Shells:                                       256
                             - Primitive Cartesian functions:                192
                             - Cartesian basis functions:                    992
                             - Spherical basis functions:                    832

  Maximum angular momentum of- Orbital basis functions:                        3
                             - Local part of the GTH pseudopotential:          2
                             - Non-local part of the GTH pseudopotential:      3


 MODULE QUICKSTEP:  ATOMIC COORDINATES IN angstrom

  Atom  Kind  Element       X           Y           Z          Z(eff)       Mass

       1     1 Ni  28    0.000000    0.000000    0.000000     18.00      58.6934
       2     2 Ni  28    0.000000    1.752900    1.752900     18.00      58.6934
       3     2 Ni  28    1.752900    0.000000    1.752900     18.00      58.6934
       4     1 Ni  28    1.752900    1.752900    0.000000     18.00      58.6934
       5     1 Ni  28    3.505798    0.000000    0.000000     18.00      58.6934
       6     2 Ni  28    3.505798    1.752900    1.752900     18.00      58.6934
       7     2 Ni  28    5.258698    0.000000    1.752900     18.00      58.6934
       8     1 Ni  28    5.258698    1.752900    0.000000     18.00      58.6934
       9     1 Ni  28    0.000000    3.505798    0.000000     18.00      58.6934
      10     2 Ni  28    0.000000    5.258698    1.752900     18.00      58.6934
      11     2 Ni  28    1.752900    3.505798    1.752900     18.00      58.6934
      12     1 Ni  28    1.752900    5.258698    0.000000     18.00      58.6934
      13     1 Ni  28    3.505798    3.505798    0.000000     18.00      58.6934
      14     2 Ni  28    3.505798    5.258698    1.752900     18.00      58.6934
      15     2 Ni  28    5.258698    3.505798    1.752900     18.00      58.6934
      16     1 Ni  28    5.258698    5.258698    0.000000     18.00      58.6934
      17     2 Ni  28    0.000000    0.000000    3.505798     18.00      58.6934
      18     1 Ni  28    0.000000    1.752900    5.258698     18.00      58.6934
      19     1 Ni  28    1.752900    0.000000    5.258698     18.00      58.6934
      20     2 Ni  28    1.752900    1.752900    3.505798     18.00      58.6934
      21     2 Ni  28    3.505798    0.000000    3.505798     18.00      58.6934
      22     1 Ni  28    3.505798    1.752900    5.258698     18.00      58.6934
      23     1 Ni  28    5.258698    0.000000    5.258698     18.00      58.6934
      24     2 Ni  28    5.258698    1.752900    3.505798     18.00      58.6934
      25     2 Ni  28    0.000000    3.505798    3.505798     18.00      58.6934
      26     1 Ni  28    0.000000    5.258698    5.258698     18.00      58.6934
      27     1 Ni  28    1.752900    3.505798    5.258698     18.00      58.6934
      28     2 Ni  28    1.752900    5.258698    3.505798     18.00      58.6934
      29     2 Ni  28    3.505798    3.505798    3.505798     18.00      58.6934
      30     1 Ni  28    3.505798    5.258698    5.258698     18.00      58.6934
      31     1 Ni  28    5.258698    3.505798    5.258698     18.00      58.6934
      32     2 Ni  28    5.258698    5.258698    3.505798     18.00      58.6934




 SCF PARAMETERS         Density guess:                                   RESTART
                        --------------------------------------------------------
                        max_scf:                                             500
                        max_scf_history:                                       0
                        max_diis:                                             10
                        --------------------------------------------------------
                        eps_scf:                                        1.00E-04
                        eps_scf_history:                                0.00E+00
                        eps_diis:                                       1.00E-01
                        eps_eigval:                                     1.00E-05
                        --------------------------------------------------------
                        level_shift [a.u.]:                                 0.00
                        added MOs                                       532  556
                        --------------------------------------------------------
                        Mixing method:                            BROYDEN_MIXING
                                                charge density mixing in g-space
                        --------------------------------------------------------
                        Smear method:                                FERMI_DIRAC
                        Electronic temperature [K]:                        500.0
                        Electronic temperature [a.u.]:                  1.58E-03
                        Accuracy threshold:                             1.00E-10
                        --------------------------------------------------------
                        No outer SCF

 PW_GRID| Information for grid number                                          1
 PW_GRID| Grid distributed over                                    20 processors
 PW_GRID| Real space group dimensions                                    20    1
 PW_GRID| the grid is blocked:                                                NO
 PW_GRID| Cutoff [a.u.]                                                    300.0
 PW_GRID| spherical cutoff:                                                   NO
 PW_GRID|   Bounds   1            -54      53                Points:         108
 PW_GRID|   Bounds   2            -54      53                Points:         108
 PW_GRID|   Bounds   3           -150     149                Points:         300
 PW_GRID| Volume element (a.u.^3)  0.1896E-02     Volume (a.u.^3)      6635.2971
 PW_GRID| Grid span                                                    FULLSPACE
 PW_GRID|   Distribution                         Average         Max         Min
 PW_GRID|   G-Vectors                           174960.0      174960      174960
 PW_GRID|   G-Rays                                1620.0        1620        1620
 PW_GRID|   Real Space Points                   174960.0      194400      162000

 PW_GRID| Information for grid number                                          2
 PW_GRID| Number of the reference grid                                         1
 PW_GRID| Grid distributed over                                    20 processors
 PW_GRID| Real space group dimensions                                    20    1
 PW_GRID| the grid is blocked:                                                NO
 PW_GRID| Cutoff [a.u.]                                                    100.0
 PW_GRID| spherical cutoff:                                                   NO
 PW_GRID|   Bounds   1            -30      29                Points:          60
 PW_GRID|   Bounds   2            -30      29                Points:          60
 PW_GRID|   Bounds   3            -90      89                Points:         180
 PW_GRID| Volume element (a.u.^3)  0.1024E-01     Volume (a.u.^3)      6635.2971
 PW_GRID| Grid span                                                    FULLSPACE
 PW_GRID|   Distribution                         Average         Max         Min
 PW_GRID|   G-Vectors                            32400.0       32640       32160
 PW_GRID|   G-Rays                                 540.0         544         536
 PW_GRID|   Real Space Points                    32400.0       32400       32400

 PW_GRID| Information for grid number                                          3
 PW_GRID| Number of the reference grid                                         1
 PW_GRID| Grid distributed over                                    20 processors
 PW_GRID| Real space group dimensions                                    20    1
 PW_GRID| the grid is blocked:                                                NO
 PW_GRID| Cutoff [a.u.]                                                     33.3
 PW_GRID| spherical cutoff:                                                   NO
 PW_GRID|   Bounds   1            -18      17                Points:          36
 PW_GRID|   Bounds   2            -18      17                Points:          36
 PW_GRID|   Bounds   3            -50      49                Points:         100
 PW_GRID| Volume element (a.u.^3)  0.5120E-01     Volume (a.u.^3)      6635.2971
 PW_GRID| Grid span                                                    FULLSPACE
 PW_GRID|   Distribution                         Average         Max         Min
 PW_GRID|   G-Vectors                             6480.0        6588        6300
 PW_GRID|   G-Rays                                 180.0         183         175
 PW_GRID|   Real Space Points                     6480.0        7200        3600

 PW_GRID| Information for grid number                                          4
 PW_GRID| Number of the reference grid                                         1
 PW_GRID| Grid distributed over                                    20 processors
 PW_GRID| Real space group dimensions                                    20    1
 PW_GRID| the grid is blocked:                                                NO
 PW_GRID| Cutoff [a.u.]                                                     11.1
 PW_GRID| spherical cutoff:                                                   NO
 PW_GRID|   Bounds   1            -10       9                Points:          20
 PW_GRID|   Bounds   2            -10       9                Points:          20
 PW_GRID|   Bounds   3            -30      29                Points:          60
 PW_GRID| Volume element (a.u.^3)  0.2765         Volume (a.u.^3)      6635.2971
 PW_GRID| Grid span                                                    FULLSPACE
 PW_GRID|   Distribution                         Average         Max         Min
 PW_GRID|   G-Vectors                             1200.0        1320        1060
 PW_GRID|   G-Rays                                  60.0          66          53
 PW_GRID|   Real Space Points                     1200.0        1200        1200

 PW_GRID| Information for grid number                                          5
 PW_GRID| Number of the reference grid                                         1
 PW_GRID| Grid distributed over                                    20 processors
 PW_GRID| Real space group dimensions                                     4    5
 PW_GRID| the grid is blocked:                                                NO
 PW_GRID| Cutoff [a.u.]                                                      3.7
 PW_GRID| spherical cutoff:                                                   NO
 PW_GRID|   Bounds   1             -6       5                Points:          12
 PW_GRID|   Bounds   2             -6       5                Points:          12
 PW_GRID|   Bounds   3            -18      17                Points:          36
 PW_GRID| Volume element (a.u.^3)   1.280         Volume (a.u.^3)      6635.2971
 PW_GRID| Grid span                                                    FULLSPACE
 PW_GRID|   Distribution                         Average         Max         Min
 PW_GRID|   G-Vectors                              259.2         300         204
 PW_GRID|   G-Rays                                  21.6          25          17
 PW_GRID|   Real Space Points                      259.2         324         216

 POISSON| Solver                                                        PERIODIC
 POISSON| Periodicity                                                        XYZ

 RS_GRID| Information for grid number                                          1
 RS_GRID|   Bounds   1            -54      53                Points:         108
 RS_GRID|   Bounds   2            -54      53                Points:         108
 RS_GRID|   Bounds   3           -150     149                Points:         300
 RS_GRID| Real space distribution over                                 20 groups
 RS_GRID| Real space distribution along direction                              3
 RS_GRID| Border size                                                         28
 RS_GRID|   Distribution                         Average         Max         Min
 RS_GRID|   Planes                                  71.0          71          71

 RS_GRID| Information for grid number                                          2
 RS_GRID|   Bounds   1            -30      29                Points:          60
 RS_GRID|   Bounds   2            -30      29                Points:          60
 RS_GRID|   Bounds   3            -90      89                Points:         180
 RS_GRID| Real space distribution over                                 20 groups
 RS_GRID| Real space distribution along direction                              3
 RS_GRID| Border size                                                         28
 RS_GRID|   Distribution                         Average         Max         Min
 RS_GRID|   Planes                                  65.0          65          65

 RS_GRID| Information for grid number                                          3
 RS_GRID|   Bounds   1            -18      17                Points:          36
 RS_GRID|   Bounds   2            -18      17                Points:          36
 RS_GRID|   Bounds   3            -50      49                Points:         100
 RS_GRID| Real space fully replicated
 RS_GRID| Group size                                                           1

 RS_GRID| Information for grid number                                          4
 RS_GRID|   Bounds   1            -10       9                Points:          20
 RS_GRID|   Bounds   2            -10       9                Points:          20
 RS_GRID|   Bounds   3            -30      29                Points:          60
 RS_GRID| Real space fully replicated
 RS_GRID| Group size                                                           1

 RS_GRID| Information for grid number                                          5
 RS_GRID|   Bounds   1             -6       5                Points:          12
 RS_GRID|   Bounds   2             -6       5                Points:          12
 RS_GRID|   Bounds   3            -18      17                Points:          36
 RS_GRID| Real space fully replicated
 RS_GRID| Group size                                                           1

 Spin 1

 Number of electrons:                                                        300
 Number of occupied orbitals:                                                300
 Number of molecular orbitals:                                               832

 Spin 2

 Number of electrons:                                                        276
 Number of occupied orbitals:                                                276
 Number of molecular orbitals:                                               832

 Number of orbital functions:                                                832
 Number of independent orbital functions:                                    832

 Extrapolation method: initial_guess


 SCF WAVEFUNCTION OPTIMIZATION

  Step     Update method      Time    Convergence         Total energy    Change
  ------------------------------------------------------------------------------
     1 NoMix/Diag. 0.10E+00    1.0     0.04943364     -5417.3069684934 -5.42E+03
     2 Broy./Diag. 0.10E+00    1.5     0.12268041     -5417.7535321118 -4.47E-01
     3 Broy./Diag. 0.10E+00    1.5     0.07700715     -5417.4518479832  3.02E-01
     4 Broy./Diag. 0.10E+00    1.5     0.00202083     -5417.5408934268 -8.90E-02
     5 Broy./Diag. 0.10E+00    1.5     0.00051967     -5417.4064226062  1.34E-01
     6 Broy./Diag. 0.10E+00    1.5     0.00074056     -5417.3080486963  9.84E-02
     7 Broy./Diag. 0.10E+00    1.5     0.00039190     -5417.2404579201  6.76E-02
     8 Broy./Diag. 0.10E+00    1.5     0.00078772     -5417.2976269615 -5.72E-02
     9 Broy./Diag. 0.10E+00    1.5     0.00035283     -5417.2913478085  6.28E-03
    10 Broy./Diag. 0.10E+00    1.6     0.00088277     -5417.3163042982 -2.50E-02
    11 Broy./Diag. 0.10E+00    1.7     0.00150525     -5417.3383570292 -2.21E-02
    12 Broy./Diag. 0.10E+00    1.5     0.00069255     -5417.3465265681 -8.17E-03
    13 Broy./Diag. 0.10E+00    1.5     0.00120220     -5417.3485158550 -1.99E-03
    14 Broy./Diag. 0.10E+00    1.5     0.00008527     -5417.3324623143  1.61E-02

  *** SCF run converged in    14 steps ***


  Electronic density on regular grids:       -575.9999999997        0.0000000003
  Core density on regular grids:              575.9999999999       -0.0000000001
  Total charge density on r-space grids:        0.0000000002
  Total charge density g-space grids:           0.0000000002

  Overlap energy of the core charge distribution:               0.00000000000000
  Self energy of the core charge distribution:              -8356.45371746162709
  Core Hamiltonian energy:                                   2339.45995307346402
  Hartree energy:                                            1141.33740014918521
  Exchange-correlation energy:                               -541.66600416863002
  Electronic entropic energy:                                  -0.01009119676795
  Fermi energy:                                                 0.06248533312299

  Total energy:                                             -5417.33246231434077

  Integrated absolute spin density  :                              26.0438041807
  WARNING: S**2 computation does not yet treat fractional occupied orbitals

 The sum of alpha and beta density is written in cube file format to the file:

 Ni_bulk-ELECTRON_DENSITY-1_0.cube

 The spin density is written in cube file format to the file:

 Ni_bulk-SPIN_DENSITY-1_0.cube

 !-----------------------------------------------------------------------------!
                     Mulliken Population Analysis

 #  Atom  Element  Kind  Atomic population (alpha,beta) Net charge  Spin moment
       1     Ni       1         9.357720     8.609256     0.033024     0.748464
       2     Ni       2         9.355917     8.678477    -0.034394     0.677440
       3     Ni       2         9.355923     8.678485    -0.034407     0.677438
       4     Ni       1         9.357694     8.609219     0.033087     0.748474
       5     Ni       1         9.357711     8.609246     0.033043     0.748466
       6     Ni       2         9.355927     8.678491    -0.034417     0.677436
       7     Ni       2         9.355925     8.678488    -0.034413     0.677436
       8     Ni       1         9.357714     8.609245     0.033041     0.748469
       9     Ni       1         9.357716     8.609251     0.033033     0.748464
      10     Ni       2         9.355932     8.678499    -0.034431     0.677433
      11     Ni       2         9.355921     8.678483    -0.034404     0.677438
      12     Ni       1         9.357714     8.609244     0.033042     0.748469
      13     Ni       1         9.357720     8.609257     0.033023     0.748463
      14     Ni       2         9.355920     8.678482    -0.034403     0.677438
      15     Ni       2         9.355928     8.678493    -0.034421     0.677434
      16     Ni       1         9.357716     8.609249     0.033034     0.748467
      17     Ni       2         9.355633     8.677719    -0.033352     0.677914
      18     Ni       1         9.357743     8.607479     0.034778     0.750264
      19     Ni       1         9.357772     8.607514     0.034714     0.750258
      20     Ni       2         9.355632     8.677719    -0.033351     0.677913
      21     Ni       2         9.355630     8.677715    -0.033346     0.677915
      22     Ni       1         9.357788     8.607533     0.034678     0.750255
      23     Ni       1         9.357764     8.607502     0.034734     0.750261
      24     Ni       2         9.355636     8.677724    -0.033360     0.677912
      25     Ni       2         9.355632     8.677717    -0.033349     0.677915
      26     Ni       1         9.357795     8.607539     0.034666     0.750256
      27     Ni       1         9.357761     8.607501     0.034738     0.750260
      28     Ni       2         9.355637     8.677725    -0.033362     0.677911
      29     Ni       2         9.355632     8.677718    -0.033350     0.677914
      30     Ni       1         9.357745     8.607480     0.034775     0.750265
      31     Ni       1         9.357774     8.607514     0.034711     0.750260
      32     Ni       2         9.355636     8.677725    -0.033361     0.677912
 # Total charge and spin      299.416307   276.583693    -0.000000    22.832614

 !-----------------------------------------------------------------------------!

 !-----------------------------------------------------------------------------!
                           Hirshfeld Charges

  #Atom  Element  Kind  Ref Charge     Population       Spin moment  Net charge
      1       Ni     1      18.000    9.375   8.630            0.745     -0.006
      2       Ni     2      18.000    9.338   8.657            0.681      0.004
      3       Ni     2      18.000    9.338   8.657            0.681      0.004
      4       Ni     1      18.000    9.375   8.630            0.745     -0.006
      5       Ni     1      18.000    9.375   8.630            0.745     -0.006
      6       Ni     2      18.000    9.338   8.657            0.681      0.004
      7       Ni     2      18.000    9.338   8.657            0.681      0.004
      8       Ni     1      18.000    9.375   8.630            0.745     -0.006
      9       Ni     1      18.000    9.375   8.630            0.745     -0.006
     10       Ni     2      18.000    9.338   8.657            0.681      0.004
     11       Ni     2      18.000    9.338   8.657            0.681      0.004
     12       Ni     1      18.000    9.375   8.630            0.745     -0.006
     13       Ni     1      18.000    9.375   8.630            0.745     -0.006
     14       Ni     2      18.000    9.338   8.657            0.681      0.004
     15       Ni     2      18.000    9.338   8.657            0.681      0.004
     16       Ni     1      18.000    9.375   8.630            0.745     -0.006
     17       Ni     2      18.000    9.338   8.657            0.681      0.005
     18       Ni     1      18.000    9.375   8.629            0.747     -0.004
     19       Ni     1      18.000    9.375   8.629            0.747     -0.004
     20       Ni     2      18.000    9.338   8.657            0.681      0.005
     21       Ni     2      18.000    9.338   8.657            0.681      0.005
     22       Ni     1      18.000    9.375   8.629            0.747     -0.004
     23       Ni     1      18.000    9.375   8.629            0.747     -0.004
     24       Ni     2      18.000    9.338   8.657            0.681      0.005
     25       Ni     2      18.000    9.338   8.657            0.681      0.005
     26       Ni     1      18.000    9.375   8.629            0.747     -0.004
     27       Ni     1      18.000    9.375   8.629            0.747     -0.004
     28       Ni     2      18.000    9.338   8.657            0.681      0.005
     29       Ni     2      18.000    9.338   8.657            0.681      0.005
     30       Ni     1      18.000    9.375   8.629            0.747     -0.004
     31       Ni     1      18.000    9.375   8.629            0.747     -0.004
     32       Ni     2      18.000    9.338   8.657            0.681      0.005

  Total Charge                                                           -0.000
 !-----------------------------------------------------------------------------!

 ENERGY| Total FORCE_EVAL ( QS ) energy (a.u.):            -5417.332462314340773


 -------------------------------------------------------------------------------
 -                                                                             -
 -                                DBCSR STATISTICS                             -
 -                                                                             -
 -------------------------------------------------------------------------------
 COUNTER                                    TOTAL       BLAS       SMM       ACC
 flops    26 x    32 x    26           2303721472       0.0%    100.0%      0.0%
 flops    26 x    26 x    64           5482414080       0.0%    100.0%      0.0%
 flops    26 x    26 x    96          12335431680       0.0%    100.0%      0.0%
 flops inhomo. stacks                           0       0.0%      0.0%      0.0%
 flops total                        20.121567E+09       0.0%    100.0%      0.0%
 flops max/rank                      1.381506E+09       0.0%    100.0%      0.0%
 matmuls inhomo. stacks                         0       0.0%      0.0%      0.0%
 matmuls total                             211648       0.0%    100.0%      0.0%
 number of processed stacks                  6400       0.0%    100.0%      0.0%
 average stack size                                     0.0      33.1       0.0
 marketing flops                    15.012954E+09
 -------------------------------------------------------------------------------
 # multiplications                             32
 max memory usage/rank             268.865536E+06
 # max total images/rank                        5
 # max 3D layers                                1
 # MPI messages exchanged                    8960
 MPI messages size (bytes):
  total size                         1.772093E+09
  min size                          39.936000E+03
  max size                         346.112000E+03
  average size                     197.778281E+03
 MPI breakdown and total messages size (bytes):
             size <=      128                   0                        0
       128 < size <=     8192                   0                        0
      8192 < size <=    32768                   0                        0
     32768 < size <=   131072                3200                177209344
    131072 < size <=  4194304                5760               1594884096
   4194304 < size <= 16777216                   0                        0
  16777216 < size                               0                        0
 -------------------------------------------------------------------------------

 *** WARNING in dbcsr_mm.F:295 :: Using a non-square number of MPI ranks ***
 *** might lead to poor performance. Used ranks: 20 Suggested: 16 36     ***

 -------------------------------------------------------------------------------
 -                                                                             -
 -                      DBCSR MESSAGE PASSING PERFORMANCE                      -
 -                                                                             -
 -------------------------------------------------------------------------------
 ROUTINE             CALLS      AVE VOLUME [Bytes]
 MP_Group               32
 MP_Bcast                4                     12.
 MP_Allreduce          237                      9.
 MP_Alltoall           870                 119650.
 MP_Wait              2048
 MP_ISend             1280                  77863.
 MP_IRecv             1280                  73068.
 MP_Memory            5952
 -------------------------------------------------------------------------------

 MEMORY| Estimated peak process memory [MiB]                                 259

 -------------------------------------------------------------------------------
 ----                             MULTIGRID INFO                            ----
 -------------------------------------------------------------------------------
 count for grid        1:         603232          cutoff [a.u.]          300.00
 count for grid        2:         188656          cutoff [a.u.]          100.00
 count for grid        3:         143504          cutoff [a.u.]           33.33
 count for grid        4:          33968          cutoff [a.u.]           11.11
 count for grid        5:           1600          cutoff [a.u.]            3.70
 total gridlevel count  :         970960

 -------------------------------------------------------------------------------
 -                                                                             -
 -                         MESSAGE PASSING PERFORMANCE                         -
 -                                                                             -
 -------------------------------------------------------------------------------

 ROUTINE             CALLS      AVE VOLUME [Bytes]
 MP_Group                5
 MP_Bcast             1786                 212183.
 MP_Allreduce          321                   1901.
 MP_Sync                 5
 MP_Alltoall           691                6824822.
 MP_ISendRecv         3306                  23264.
 MP_Wait              6894
 MP_ISend             3112                 165882.
 MP_IRecv             3112                 165815.
 MP_Recv                48                 212992.
 MP_Write_All            2                 319950.
 -------------------------------------------------------------------------------


 -------------------------------------------------------------------------------
 -                                                                             -
 -                           R E F E R E N C E S                               -
 -                                                                             -
 -------------------------------------------------------------------------------
 
 CP2K version 7.1, the CP2K developers group (2019).
 CP2K is freely available from https://www.cp2k.org/ .

 Schuett, Ole; Messmer, Peter; Hutter, Juerg; VandeVondele, Joost. 
 Electronic Structure Calculations on Graphics Processing Units, John
 Wiley & Sons, Ltd, 173-190 (2016). 
 GPU-Accelerated Sparse Matrix-Matrix Multiplication for
 Linear Scaling Density Functional Theory.
 https://dx.doi.org/10.1002/9781118670712.ch8

 Borstnik, U; VandeVondele, J; Weber, V; Hutter, J. 
 PARALLEL COMPUTING, 40 (5-6), 47-58 (2014). 
 Sparse matrix multiplication: The distributed block-compressed sparse
 row library.
 https://dx.doi.org/10.1016/j.parco.2014.03.012

 Hutter, J; Iannuzzi, M; Schiffmann, F; VandeVondele, J. 
 WIREs Comput Mol Sci., 4 (1), 15-25 (2014). 
 CP2K: atomistic simulations of condensed matter systems.
 https://dx.doi.org/10.1002/wcms.1159

 Marek, A; Blum, V; Johanni, R; Havu, V; Lang, B; Auckenthaler, T;
 Heinecke, A; Bungartz, H; Lederer, H. 
 Journal of Physics: Condensed Matter, 26 (21), (2014). 
 The ELPA library: scalable parallel eigenvalue solutions for
 electronic structure
 theory and computational science.
 https://dx.doi.org/10.1088/0953-8984/26/21/213201

 VandeVondele, J; Hutter, J. 
 JOURNAL OF CHEMICAL PHYSICS, 127 (11), 114105 (2007). 
 Gaussian basis sets for accurate calculations on molecular systems in
 gas and condensed phases.
 https://dx.doi.org/10.1063/1.2770708

 Krack, M. 
 THEORETICAL CHEMISTRY ACCOUNTS, 114 (1-3), 145-152 (2005). 
 Pseudopotentials for H to Kr optimized for gradient-corrected
 exchange-correlation functionals.
 https://dx.doi.org/10.1007/s00214-005-0655-y

 VandeVondele, J; Krack, M; Mohamed, F; Parrinello, M; Chassaing, T;
 Hutter, J. COMPUTER PHYSICS COMMUNICATIONS, 167 (2), 103-128 (2005). 
 QUICKSTEP: Fast and accurate density functional calculations using a
 mixed Gaussian and plane waves approach.
 https://dx.doi.org/10.1016/j.cpc.2004.12.014

 Frigo, M; Johnson, SG. 
 PROCEEDINGS OF THE IEEE, 93 (2), 216-231 (2005). 
 The design and implementation of FFTW3.
 https://dx.doi.org/10.1109/JPROC.2004.840301

 Hartwigsen, C; Goedecker, S; Hutter, J. 
 PHYSICAL REVIEW B, 58 (7), 3641-3662 (1998). 
 Relativistic separable dual-space Gaussian pseudopotentials from H to Rn.
 https://dx.doi.org/10.1103/PhysRevB.58.3641

 Lippert, G; Hutter, J; Parrinello, M. 
 MOLECULAR PHYSICS, 92 (3), 477-487 (1997). 
 A hybrid Gaussian and plane wave density functional scheme.
 https://dx.doi.org/10.1080/002689797170220

 Perdew, JP; Burke, K; Ernzerhof, M. 
 PHYSICAL REVIEW LETTERS, 77 (18), 3865-3868 (1996). 
 Generalized gradient approximation made simple.
 https://dx.doi.org/10.1103/PhysRevLett.77.3865

 Goedecker, S; Teter, M; Hutter, J. 
 PHYSICAL REVIEW B, 54 (3), 1703-1710 (1996). 
 Separable dual-space Gaussian pseudopotentials.
 https://dx.doi.org/10.1103/PhysRevB.54.1703


 -------------------------------------------------------------------------------
 -                                                                             -
 -                                T I M I N G                                  -
 -                                                                             -
 -------------------------------------------------------------------------------
 SUBROUTINE                       CALLS  ASD         SELF TIME        TOTAL TIME
                                MAXIMUM       AVERAGE  MAXIMUM  AVERAGE  MAXIMUM
 CP2K                                 1  1.0    0.017    0.020   23.610   23.610
 qs_energies                          1  2.0    0.002    0.002   22.959   22.959
 scf_env_do_scf                       1  3.0    0.000    0.000   21.037   21.042
 scf_env_do_scf_inner_loop           14  4.0    0.002    0.003   21.032   21.037
 qs_ks_update_qs_env                 14  5.0    0.000    0.000   11.800   11.802
 rebuild_ks_matrix                   14  6.0    0.000    0.000   11.797   11.798
 qs_ks_build_kohn_sham_matrix        14  7.0    0.002    0.002   11.797   11.798
 qs_rho_update_rho                   15  5.0    0.000    0.000    6.070    6.071
 calculate_rho_elec                  30  6.0    3.902    4.631    6.070    6.071
 sum_up_and_integrate                14  8.0    0.011    0.012    5.958    5.960
 integrate_v_rspace                  28  9.0    3.982    4.983    5.947    5.949
 qs_vxc_create                       14  8.0    0.000    0.000    5.519    5.527
 xc_vxc_pw_create                    14  9.0    0.080    0.091    5.519    5.527
 pw_transfer                        585  9.5    0.021    0.025    5.227    5.408
 fft_wrap_pw1pw2                    557 10.5    0.003    0.004    5.185    5.367
 fft_wrap_pw1pw2_300                325 11.6    0.321    0.343    4.985    5.163
 fft3d_ps                           557 12.5    2.398    2.656    4.010    4.243
 xc_rho_set_and_dset_create          14 10.0    0.038    0.041    3.301    3.569
 density_rs2pw                       30  7.0    0.001    0.001    2.024    2.962
 rs_pw_transfer                     294  9.4    0.002    0.002    1.524    2.447
 qs_scf_new_mos                      14  5.0    0.001    0.001    2.327    2.329
 mp_alltoall_d11v                   431  9.3    1.087    2.168    1.087    2.168
 xc_functional_eval                  14 11.0    0.000    0.000    1.885    2.151
 pbe_lsd_eval                        14 12.0    1.885    2.151    1.885    2.151
 rs_distribute_matrix                58  8.4    0.018    0.031    1.081    2.149
 eigensolver                         28  6.0    0.001    0.002    2.052    2.053
 rs_pw_transfer_RS2PW_300            32  8.9    0.143    0.157    1.009    1.931
 mp_waitany                        3112 11.4    0.962    1.898    0.962    1.898
 cp_fm_diag_elpa                     30  7.1    0.000    0.000    1.752    1.758
 cp_fm_diag_elpa_base                30  8.1    1.711    1.732    1.752    1.758
 mp_alltoall_z22v                   557 14.5    1.181    1.568    1.181    1.568
 yz_to_x                            233 13.1    0.150    0.172    0.888    1.188
 gspace_mixing                       13  5.0    0.023    0.027    1.177    1.177
 init_scf_run                         1  3.0    0.000    0.000    1.054    1.054
 scf_env_initial_rho_setup            1  4.0    0.000    0.000    1.040    1.040
 potential_pw2rs                     28 10.0    0.002    0.002    0.920    0.921
 x_to_yz                            266 13.9    0.268    0.316    0.711    0.773
 broyden_mixing                      13  6.0    0.604    0.623    0.683    0.686
 scf_post_calculation_gpw             1  3.0    0.001    0.001    0.581    0.586
 write_available_results              1  4.0    0.000    0.000    0.580    0.585
 calculate_first_density_matrix       1  5.0    0.002    0.043    0.582    0.582
 write_mo_free_results                1  5.0    0.142    0.149    0.574    0.574
 pw_gather_p                        263 12.0    0.444    0.499    0.444    0.499
 create_qs_kind_set                   1  2.0    0.000    0.000    0.474    0.474
 read_qs_kind                         2  3.0    0.016    0.019    0.473    0.473
 -------------------------------------------------------------------------------

 The number of warnings for this run is : 3
 
 -------------------------------------------------------------------------------
  **** **** ******  **  PROGRAM ENDED AT                 2022-11-28 15:29:43.646
 ***** ** ***  *** **   PROGRAM RAN ON                             node-c12o-004
 **    ****   ******    PROGRAM RAN BY                                   mmm1169
 ***** **    ** ** **   PROGRAM PROCESS ID                                 70498
  **** **  *******  **  PROGRAM STOPPED IN /lustre/scratch/mmm1169/work/other/cp
                                           2k_forum/ni_bulk/final/slab/multiplic
                                           ity-25/optimise-alpha-scf-1e-3-rs-1e-
                                           4/folder_1E-1
