# Projected DOS for atomic kind Pt at iteration step i = 0, E(Fermi) =     0.554211 a.u.
#     MO Eigenvalue [a.u.]      Occupation                 s                 p                 d                 f
       1         -3.348339        1.000000        0.02188444        0.00012399        0.02063167        0.00001819
       2         -3.348339        1.000000        0.00962372        0.01807696        0.01556912        0.00244728
       3         -3.348339        1.000000        0.00962649        0.01808997        0.01554533        0.00244644
       4         -3.348339        1.000000        0.00963667        0.01807492        0.01554821        0.00244421
       5         -3.348339        1.000000        0.00962997        0.01807738        0.01555929        0.00244462
       6         -3.348339        1.000000        0.00961453        0.01809925        0.01554975        0.00244966
       7         -3.348339        1.000000        0.00966328        0.01804625        0.01554314        0.00243948
       8         -3.348339        1.000000        0.00437933        0.02283592        0.01851190        0.00329746
       9         -3.348339        1.000000        0.00440890        0.02290080        0.01834305        0.00330554
      10         -3.348339        1.000000        0.00440671        0.02290358        0.01834198        0.00330641
      11         -3.348339        1.000000        0.00438152        0.02299819        0.01818911        0.00333312
      12         -3.348339        1.000000        0.00444204        0.02286732        0.01834353        0.00329530
      13         -3.348339        1.000000        0.00444013        0.02290139        0.01828723        0.00330165
      14         -3.348339        1.000000        0.00442814        0.02287300        0.01836793        0.00329537
      15         -3.348339        1.000000        0.00439953        0.02293413        0.01829887        0.00331209
      16         -3.348339        1.000000        0.00443428        0.02285558        0.01839454        0.00329006
      17         -3.348339        1.000000        0.00435203        0.02299655        0.01825484        0.00333347
      18         -3.348339        1.000000        0.00438364        0.02302059        0.01814924        0.00333481
      19         -3.348339        1.000000        0.00442023        0.02294044        0.01823957        0.00331533
      20         -3.348339        1.000000        0.00205562        0.02788386        0.01223447        0.00480881
      21         -3.348339        1.000000        0.00203618        0.02796821        0.01209981        0.00483088
      22         -3.348339        1.000000        0.00197116        0.02813893        0.01185792        0.00488359
      23         -3.348339        1.000000        0.00207783        0.02074669        0.02676659        0.00307598
      24         -3.348339        1.000000        0.00216387        0.02086659        0.02642188        0.00307897
      25         -3.348339        1.000000        0.00212539        0.02084599        0.02652269        0.00308363
      26         -3.348339        1.000000        0.00203966        0.02106819        0.02627135        0.00314535
      27         -3.348339        1.000000        0.00211750        0.02080147        0.02663004        0.00307097
      28         -3.348339        1.000000        0.00211872        0.02087233        0.02649714        0.00308675
      29         -3.348338        1.000000        0.00206704        0.02083650        0.02664426        0.00309087
      30         -3.348338        1.000000        0.00208273        0.02074437        0.02677470        0.00307172
      31         -3.348338        1.000000        0.00083393        0.02399261        0.02275451        0.00409058
      32         -3.348338        1.000000        0.00088478        0.02483808        0.02119530        0.00424392
      33         -3.348338        1.000000        0.00085311        0.02486668        0.02120107        0.00425557
      34         -3.348338        1.000000        0.00090700        0.02477565        0.02129939        0.00421742
      35         -3.348338        1.000000        0.00082828        0.02458740        0.02173380        0.00420570
      36         -3.348338        1.000000        0.00084771        0.02453351        0.02180168        0.00419077
      37         -3.348338        1.000000        0.00082979        0.02480340        0.02136063        0.00424586
      38         -3.348338        1.000000        0.00086481        0.02460210        0.02165888        0.00419792
      39         -3.348338        1.000000        0.00084968        0.02473977        0.02142048        0.00423164
      40         -3.348338        1.000000        0.00085041        0.02474174        0.02142910        0.00423062
      41         -3.348338        1.000000        0.00086607        0.02495768        0.02102975        0.00426849
      42         -3.348338        1.000000        0.00086726        0.02473486        0.02141869        0.00422418
      43         -3.348338        1.000000        0.00041397        0.01782250        0.03425992        0.00298614
      44         -3.348338        1.000000        0.00041611        0.01809045        0.03384056        0.00302104
      45         -3.348338        1.000000        0.00040545        0.01758513        0.03470531        0.00293477
      46         -3.348338        1.000000        0.00040791        0.01783458        0.03427966        0.00297702
      47         -3.348338        1.000000        0.00041060        0.01790763        0.03417865        0.00298946
      48         -3.348338        1.000000        0.00040466        0.01794255        0.03411336        0.00299732
      49         -3.348338        1.000000        0.00038853        0.01773741        0.03449873        0.00295994
      50         -3.348338        1.000000        0.00039053        0.01759835        0.03472477        0.00293499
      51         -3.348338        1.000000        0.00041840        0.01773924        0.03444093        0.00295705
      52         -3.348338        1.000000        0.00038929        0.01750074        0.03489490        0.00291899
      53         -3.348338        1.000000        0.00031587        0.01662359        0.03648000        0.00279178
      54         -3.348338        1.000000        0.00039613        0.01767414        0.03458610        0.00294999
      55         -3.348338        1.000000        0.00008715        0.00883321        0.04953009        0.00152690
      56         -3.348338        1.000000        0.00004060        0.00920640        0.04912626        0.00158966
      57         -3.348338        1.000000        0.00005349        0.01227674        0.04413466        0.00213907
      58         -3.348338        1.000000        0.00005480        0.01692972        0.03656752        0.00300093
      59         -3.348338        1.000000        0.00005196        0.01599451        0.03810817        0.00282724
      60         -3.348338        1.000000        0.00004941        0.01445332        0.04062795        0.00253951
      61         -3.348338        1.000000        0.00003192        0.01447221        0.04064497        0.00254935
      62         -3.348338        1.000000        0.00002954        0.01788353        0.03507576        0.00319131
      63         -3.348338        1.000000        0.00002504        0.01125657        0.04589399        0.00195530
      64         -3.348338        1.000000        0.00004326        0.01476944        0.04007698        0.00261517
      65         -3.054403        1.000000        0.98435935        0.00000000        0.01260137        0.00000000
      66         -3.054286        1.000000        0.96898598        0.01516597        0.00954081        0.00143842
      67         -3.054286        1.000000        0.96898593        0.01516600        0.00954091        0.00143836
      68         -3.054286        1.000000        0.96898593        0.01516600        0.00954091        0.00143836
      69         -3.054286        1.000000        0.96898591        0.01516601        0.00954094        0.00143834
      70         -3.054286        1.000000        0.96898593        0.01516600        0.00954091        0.00143836
      71         -3.054286        1.000000        0.96898594        0.01516600        0.00954090        0.00143837
      72         -3.054149        1.000000        0.95400939        0.02124432        0.01259766        0.00259741
      73         -3.054149        1.000000        0.95400935        0.02124437        0.01259759        0.00259740
      74         -3.054149        1.000000        0.95400936        0.02124437        0.01259760        0.00259740
      75         -3.054149        1.000000        0.95400934        0.02124438        0.01259758        0.00259740
      76         -3.054149        1.000000        0.95400933        0.02124439        0.01259757        0.00259740
      77         -3.054149        1.000000        0.95400936        0.02124436        0.01259761        0.00259740
      78         -3.054149        1.000000        0.95400934        0.02124439        0.01259757        0.00259740
      79         -3.054149        1.000000        0.95400938        0.02124435        0.01259763        0.00259741
      80         -3.054149        1.000000        0.95400935        0.02124438        0.01259758        0.00259740
      81         -3.054149        1.000000        0.95400932        0.02124441        0.01259754        0.00259740
      82         -3.054149        1.000000        0.95400933        0.02124439        0.01259757        0.00259740
      83         -3.054149        1.000000        0.95400938        0.02124434        0.01259765        0.00259741
      84         -3.054052        1.000000        0.94689960        0.03232256        0.01146865        0.00081877
      85         -3.054052        1.000000        0.94689961        0.03232258        0.01146864        0.00081876
      86         -3.054052        1.000000        0.94689960        0.03232257        0.01146864        0.00081877
      87         -3.054034        1.000000        0.93842941        0.01906923        0.02444108        0.00252930
      88         -3.054034        1.000000        0.93842940        0.01906921        0.02444110        0.00252930
      89         -3.054034        1.000000        0.93842940        0.01906921        0.02444110        0.00252930
      90         -3.054034        1.000000        0.93842940        0.01906921        0.02444109        0.00252930
      91         -3.054034        1.000000        0.93842940        0.01906921        0.02444110        0.00252930
      92         -3.054034        1.000000        0.93842940        0.01906921        0.02444109        0.00252930
      93         -3.054034        1.000000        0.93842939        0.01906921        0.02444110        0.00252930
      94         -3.054034        1.000000        0.93842940        0.01906921        0.02444109        0.00252930
      95         -3.053895        1.000000        0.93447096        0.02971650        0.01553892        0.00277532
      96         -3.053895        1.000000        0.93447099        0.02971648        0.01553899        0.00277532
      97         -3.053895        1.000000        0.93447090        0.02971659        0.01553869        0.00277535
      98         -3.053895        1.000000        0.93447092        0.02971657        0.01553875        0.00277534
      99         -3.053895        1.000000        0.93447095        0.02971652        0.01553887        0.00277533
     100         -3.053895        1.000000        0.93447083        0.02971668        0.01553847        0.00277537
     101         -3.053895        1.000000        0.93447087        0.02971662        0.01553862        0.00277535
     102         -3.053895        1.000000        0.93447086        0.02971663        0.01553859        0.00277536
     103         -3.053895        1.000000        0.93447081        0.02971670        0.01553841        0.00277537
     104         -3.053895        1.000000        0.93447085        0.02971666        0.01553853        0.00277536
     105         -3.053895        1.000000        0.93447088        0.02971661        0.01553864        0.00277535
     106         -3.053895        1.000000        0.93447082        0.02971669        0.01553843        0.00277537
     107         -3.053802        1.000000        0.92001114        0.02019931        0.03180305        0.00234437
     108         -3.053802        1.000000        0.92001114        0.02019931        0.03180306        0.00234437
     109         -3.053802        1.000000        0.92001114        0.02019931        0.03180306        0.00234437
     110         -3.053802        1.000000        0.92001114        0.02019931        0.03180306        0.00234437
     111         -3.053802        1.000000        0.92001114        0.02019931        0.03180306        0.00234437
     112         -3.053802        1.000000        0.92001113        0.02019931        0.03180306        0.00234437
     113         -3.053802        1.000000        0.92001114        0.02019931        0.03180306        0.00234437
     114         -3.053802        1.000000        0.92001114        0.02019931        0.03180306        0.00234437
     115         -3.053802        1.000000        0.92001114        0.02019931        0.03180306        0.00234437
     116         -3.053802        1.000000        0.92001114        0.02019931        0.03180306        0.00234437
     117         -3.053802        1.000000        0.92001114        0.02019931        0.03180306        0.00234437
     118         -3.053802        1.000000        0.92001114        0.02019931        0.03180306        0.00234437
     119         -3.053577        1.000000        0.89217367        0.00000004        0.06678549        0.00000001
     120         -3.053577        1.000000        0.89217367        0.00000003        0.06678551        0.00000001
     121         -3.053577        1.000000        0.89217368        0.00000002        0.06678553        0.00000001
     122         -3.053548        1.000000        0.90278134        0.01492348        0.03620741        0.00348616
     123         -3.053548        1.000000        0.90278130        0.01492348        0.03620739        0.00348616
     124         -3.053548        1.000000        0.90278120        0.01492359        0.03620711        0.00348618
     125         -3.053548        1.000000        0.90278126        0.01492350        0.03620733        0.00348616
     126         -3.053548        1.000000        0.90278133        0.01492341        0.03620757        0.00348614
     127         -3.053548        1.000000        0.90278144        0.01492336        0.03620770        0.00348613
     128         -3.053542        1.000000        0.90798560        0.00750694        0.05528584        0.00174236
     129         -3.053542        1.000000        0.90798560        0.00750664        0.05528653        0.00174229
     130         -3.053542        1.000000        0.90798563        0.00750664        0.05528654        0.00174228
     131         -3.053542        1.000000        0.90798562        0.00750683        0.05528609        0.00174233
     132         -3.053542        1.000000        0.90798553        0.00750687        0.05528598        0.00174234
     133         -3.053542        1.000000        0.90798556        0.00750674        0.05528629        0.00174231
     134         -3.053542        1.000000        0.90798552        0.00750690        0.05528589        0.00174235
     135         -3.053542        1.000000        0.90798559        0.00750673        0.05528632        0.00174231
     136         -3.053542        1.000000        0.90798564        0.00750663        0.05528657        0.00174228
     137         -3.053542        1.000000        0.90798561        0.00750683        0.05528606        0.00174234
     138         -3.053542        1.000000        0.90798563        0.00750665        0.05528652        0.00174229
     139         -3.053542        1.000000        0.90798557        0.00750674        0.05528627        0.00174231
     140         -3.053526        1.000000        0.94047319        0.03082066        0.00058189        0.01087152
     141         -3.053526        1.000000        0.94047314        0.03082062        0.00058197        0.01087150
     142         -3.053526        1.000000        0.94047306        0.03082053        0.00058224        0.01087146
     143         -3.053524        1.000000        0.91905969        0.01790242        0.03317602        0.00474593
     144         -3.053524        1.000000        0.91963684        0.01583677        0.03792363        0.00431357
     145         -3.053524        1.000000        0.91966730        0.01572779        0.03817412        0.00429075
     146         -3.053524        1.000000        0.91921439        0.01734868        0.03444871        0.00463003
     147         -3.053524        1.000000        0.91967023        0.01571725        0.03819834        0.00428855
     148         -3.053524        1.000000        0.91979645        0.01526584        0.03923584        0.00419407
     149         -3.053524        1.000000        0.91976540        0.01537666        0.03898115        0.00421726
     150         -3.053524        1.000000        0.91980399        0.01523858        0.03929850        0.00418836
     151         -3.053524        1.000000        0.91983848        0.01511517        0.03958214        0.00416253
     152         -3.053524        1.000000        0.91968912        0.01564977        0.03835343        0.00427443
     153         -3.053524        1.000000        0.91946196        0.01646360        0.03648296        0.00444479
     154         -3.053524        1.000000        0.91643864        0.02728286        0.01161628        0.00670938
     155         -3.053524        1.000000        0.91599988        0.02885328        0.00800688        0.00703809
     156         -3.053524        1.000000        0.91865302        0.01935805        0.02983043        0.00505062
     157         -3.053524        1.000000        0.91672328        0.02626505        0.01395562        0.00649636
     158         -3.053514        1.000000        0.93344602        0.02348594        0.02171957        0.00712842
     159         -3.053514        1.000000        0.93344637        0.02348635        0.02171842        0.00712860
     160         -3.053514        1.000000        0.93344635        0.02348633        0.02171848        0.00712859
     161         -3.053514        1.000000        0.93344622        0.02348617        0.02171893        0.00712852
     162         -3.053514        1.000000        0.93344639        0.02348635        0.02171844        0.00712860
     163         -3.053514        1.000000        0.93344641        0.02348637        0.02171837        0.00712861
     164         -3.053514        1.000000        0.93344640        0.02348636        0.02171840        0.00712861
     165         -3.053514        1.000000        0.93344629        0.02348624        0.02171873        0.00712855
     166         -3.053514        1.000000        0.93344568        0.02348562        0.02172040        0.00712828
     167         -3.053514        1.000000        0.93344514        0.02348515        0.02172158        0.00712809
     168         -3.053514        1.000000        0.93344576        0.02348570        0.02172020        0.00712831
     169         -3.053514        1.000000        0.93344599        0.02348597        0.02171942        0.00712844
     170         -3.053511        1.000000        0.92682859        0.01624652        0.04151855        0.00392195
     171         -3.053511        1.000000        0.92682863        0.01624658        0.04151840        0.00392197
     172         -3.053511        1.000000        0.92682852        0.01624645        0.04151876        0.00392192
     173         -3.053511        1.000000        0.92682944        0.01624747        0.04151596        0.00392237
     174         -3.053511        1.000000        0.92682855        0.01624648        0.04151865        0.00392193
     175         -3.053511        1.000000        0.92682982        0.01624788        0.04151482        0.00392255
     176         -3.053265        1.000000        0.93515838        0.01946099        0.02210077        0.00506694
     177         -3.053265        1.000000        0.93515842        0.01946100        0.02210075        0.00506694
     178         -3.053265        1.000000        0.93515842        0.01946101        0.02210074        0.00506694
     179         -3.053265        1.000000        0.93515843        0.01946101        0.02210074        0.00506694
     180         -3.053265        1.000000        0.93515838        0.01946099        0.02210077        0.00506694
     181         -3.053265        1.000000        0.93515841        0.01946100        0.02210075        0.00506694
     182         -3.053265        1.000000        0.93515840        0.01946100        0.02210076        0.00506694
     183         -3.053265        1.000000        0.93515821        0.01946092        0.02210089        0.00506694
     184         -3.053265        1.000000        0.93515832        0.01946096        0.02210081        0.00506694
     185         -3.053265        1.000000        0.93515822        0.01946092        0.02210088        0.00506694
     186         -3.053265        1.000000        0.93515820        0.01946091        0.02210089        0.00506694
     187         -3.053265        1.000000        0.93515828        0.01946095        0.02210084        0.00506694
     188         -3.053252        1.000000        0.92560983        0.01544993        0.02846833        0.00517291
     189         -3.053252        1.000000        0.92561087        0.01545037        0.02846766        0.00517288
     190         -3.053252        1.000000        0.92561050        0.01545022        0.02846790        0.00517289
     191         -3.053252        1.000000        0.92561019        0.01545008        0.02846810        0.00517290
     192         -3.053252        1.000000        0.92560774        0.01544904        0.02846968        0.00517295
     193         -3.053252        1.000000        0.92560881        0.01544950        0.02846899        0.00517293
     194         -3.053252        1.000000        0.92560762        0.01544899        0.02846976        0.00517296
     195         -3.053252        1.000000        0.92560726        0.01544884        0.02846999        0.00517297
     196         -3.053252        1.000000        0.92560578        0.01544820        0.02847095        0.00517300
     197         -3.053252        1.000000        0.92560404        0.01544747        0.02847206        0.00517304
     198         -3.053252        1.000000        0.92560618        0.01544838        0.02847069        0.00517299
     199         -3.053252        1.000000        0.92560234        0.01544674        0.02847316        0.00517308
     200         -3.053252        1.000000        0.92560256        0.01544684        0.02847302        0.00517307
     201         -3.053252        1.000000        0.92560556        0.01544811        0.02847108        0.00517300
     202         -3.053252        1.000000        0.92560789        0.01544911        0.02846958        0.00517295
     203         -3.053252        1.000000        0.92560951        0.01544979        0.02846854        0.00517291
     204         -3.053250        1.000000        0.91719569        0.01186718        0.03389890        0.00536305
     205         -3.053250        1.000000        0.91719566        0.01186717        0.03389892        0.00536305
     206         -3.053250        1.000000        0.91719551        0.01186710        0.03389902        0.00536305
     207         -3.053250        1.000000        0.91719650        0.01186752        0.03389837        0.00536303
     208         -3.053250        1.000000        0.91719667        0.01186760        0.03389827        0.00536303
     209         -3.053250        1.000000        0.91719621        0.01186740        0.03389856        0.00536304
     210         -3.053250        1.000000        0.91719751        0.01186796        0.03389773        0.00536301
     211         -3.053250        1.000000        0.91719948        0.01186879        0.03389645        0.00536296
     212         -3.053250        1.000000        0.91720540        0.01187132        0.03389263        0.00536283
     213         -3.053250        1.000000        0.91720522        0.01187124        0.03389275        0.00536283
     214         -3.053250        1.000000        0.91720743        0.01187218        0.03389132        0.00536278
     215         -3.053250        1.000000        0.91720608        0.01187161        0.03389219        0.00536281
     216         -3.053223        1.000000        0.93784001        0.01853979        0.01752467        0.00449368
     217         -3.053223        1.000000        0.93784001        0.01853979        0.01752465        0.00449369
     218         -3.053223        1.000000        0.93784005        0.01853977        0.01752458        0.00449374
     219         -3.053223        1.000000        0.93784005        0.01853976        0.01752458        0.00449374
     220         -3.053223        1.000000        0.93784005        0.01853976        0.01752458        0.00449374
     221         -3.053223        1.000000        0.93784003        0.01853977        0.01752461        0.00449372
     222         -3.053127        1.000000        0.93414135        0.01236148        0.02064622        0.00809630
     223         -3.053127        1.000000        0.93414133        0.01236151        0.02064614        0.00809631
     224         -3.053127        1.000000        0.93414141        0.01236140        0.02064641        0.00809628
     225         -3.053127        1.000000        0.93414140        0.01236142        0.02064638        0.00809629
     226         -3.053127        1.000000        0.93414137        0.01236146        0.02064627        0.00809630
     227         -3.053127        1.000000        0.93414148        0.01236132        0.02064664        0.00809626
     228         -3.053127        1.000000        0.93414145        0.01236136        0.02064654        0.00809627
     229         -3.053127        1.000000        0.93414148        0.01236131        0.02064666        0.00809626
     230         -3.053127        1.000000        0.93414146        0.01236135        0.02064655        0.00809627
     231         -3.053127        1.000000        0.93414150        0.01236130        0.02064668        0.00809625
     232         -3.053127        1.000000        0.93414143        0.01236138        0.02064648        0.00809628
     233         -3.053127        1.000000        0.93414151        0.01236129        0.02064670        0.00809625
     234         -3.053100        1.000000        0.93796906        0.01102922        0.01975157        0.00679719
     235         -3.053100        1.000000        0.93796907        0.01102921        0.01975159        0.00679719
     236         -3.053100        1.000000        0.93796906        0.01102922        0.01975157        0.00679719
     237         -3.053100        1.000000        0.93796907        0.01102921        0.01975159        0.00679719
     238         -3.053100        1.000000        0.93796906        0.01102922        0.01975157        0.00679719
     239         -3.053100        1.000000        0.93796909        0.01102919        0.01975162        0.00679720
     240         -3.053100        1.000000        0.93796908        0.01102919        0.01975161        0.00679719
     241         -3.053100        1.000000        0.93796906        0.01102922        0.01975157        0.00679719
     242         -3.053100        1.000000        0.93796910        0.01102918        0.01975164        0.00679720
     243         -3.053100        1.000000        0.93796908        0.01102919        0.01975161        0.00679720
     244         -3.053100        1.000000        0.93796904        0.01102924        0.01975155        0.00679719
     245         -3.053100        1.000000        0.93796904        0.01102924        0.01975155        0.00679719
     246         -3.053030        1.000000        0.94311671        0.00000000        0.03178560        0.00000000
     247         -3.053030        1.000000        0.94311672        0.00000000        0.03178559        0.00000001
     248         -3.052996        1.000000        0.94868868        0.00020411        0.02498376        0.00497689
     249         -3.052996        1.000000        0.94868868        0.00020411        0.02498376        0.00497689
     250         -3.052996        1.000000        0.94868868        0.00020411        0.02498376        0.00497689
     251         -3.052996        1.000000        0.94868868        0.00020411        0.02498376        0.00497689
     252         -3.052996        1.000000        0.94868868        0.00020411        0.02498376        0.00497689
     253         -3.052996        1.000000        0.94868868        0.00020411        0.02498376        0.00497689
     254         -3.052968        1.000000        0.95378957        0.00000000        0.01925529        0.00955221
     255         -3.052968        1.000000        0.95378957        0.00000000        0.01925529        0.00955221
     256         -3.052968        1.000000        0.95378957        0.00000000        0.01925529        0.00955221
     257         -1.753562        1.000000        0.00000001        0.00920732        0.00000005        0.00117297
     258         -1.753562        1.000000        0.00000000        0.00920736        0.00000004        0.00117297
     259         -1.753562        1.000000        0.00000000        0.00920735        0.00000004        0.00117297