# Projected DOS for atomic kind Pt at iteration step i = 0, E(Fermi) =     0.554211 a.u.
#     MO Eigenvalue [a.u.]      Occupation                 s                 p                 d                 f
       1         -3.308164        1.000000        0.02207892        0.00003799        0.02078113        0.00000578
       2         -3.308164        1.000000        0.00971533        0.01817041        0.01562774        0.00246013
       3         -3.308164        1.000000        0.00972909        0.01816097        0.01561289        0.00245890
       4         -3.308164        1.000000        0.00972667        0.01816063        0.01561931        0.00245862
       5         -3.308164        1.000000        0.00972714        0.01816249        0.01561520        0.00245896
       6         -3.308164        1.000000        0.00970710        0.01817615        0.01563305        0.00246206
       7         -3.308164        1.000000        0.00969053        0.01819800        0.01562616        0.00246705
       8         -3.308163        1.000000        0.00446451        0.02304680        0.01840187        0.00332580
       9         -3.308163        1.000000        0.00448766        0.02301718        0.01841961        0.00331624
      10         -3.308163        1.000000        0.00449124        0.02302213        0.01840273        0.00331717
      11         -3.308163        1.000000        0.00446276        0.02301805        0.01846561        0.00331871
      12         -3.308163        1.000000        0.00446864        0.02306088        0.01836310        0.00332960
      13         -3.308163        1.000000        0.00447360        0.02302301        0.01843307        0.00331939
      14         -3.308163        1.000000        0.00448640        0.02301408        0.01842741        0.00331592
      15         -3.308163        1.000000        0.00447149        0.02305156        0.01837941        0.00332607
      16         -3.308163        1.000000        0.00448281        0.02302001        0.01842431        0.00331712
      17         -3.308163        1.000000        0.00445034        0.02309024        0.01832506        0.00334194
      18         -3.308163        1.000000        0.00446685        0.02306141        0.01836753        0.00332901
      19         -3.308163        1.000000        0.00436731        0.02321988        0.01820968        0.00338190
      20         -3.308163        1.000000        0.00192809        0.02848431        0.01167121        0.00496642
      21         -3.308163        1.000000        0.00199986        0.02834140        0.01183548        0.00492460
      22         -3.308163        1.000000        0.00202180        0.02829991        0.01188054        0.00491250
      23         -3.308163        1.000000        0.00215144        0.02090752        0.02681214        0.00308027
      24         -3.308163        1.000000        0.00211267        0.02095077        0.02678594        0.00310155
      25         -3.308163        1.000000        0.00214498        0.02092476        0.02678625        0.00308721
      26         -3.308163        1.000000        0.00215045        0.02090656        0.02681301        0.00308118
      27         -3.308163        1.000000        0.00213367        0.02103060        0.02660121        0.00311657
      28         -3.308163        1.000000        0.00213907        0.02094470        0.02676209        0.00309191
      29         -3.308163        1.000000        0.00215604        0.02089438        0.02682584        0.00307742
      30         -3.308163        1.000000        0.00210673        0.02105344        0.02660679        0.00312612
      31         -3.308163        1.000000        0.00085464        0.02509476        0.02121546        0.00429993
      32         -3.308163        1.000000        0.00085675        0.02516736        0.02108565        0.00431323
      33         -3.308163        1.000000        0.00084661        0.02522920        0.02099024        0.00432825
      34         -3.308163        1.000000        0.00084658        0.02521840        0.02101098        0.00432669
      35         -3.308163        1.000000        0.00084439        0.02525436        0.02094816        0.00433418
      36         -3.308163        1.000000        0.00084529        0.02520749        0.02103120        0.00432471
      37         -3.308163        1.000000        0.00084340        0.02522377        0.02100397        0.00432864
      38         -3.308163        1.000000        0.00084129        0.02523249        0.02098999        0.00433092
      39         -3.308163        1.000000        0.00085269        0.02521385        0.02100781        0.00432432
      40         -3.308163        1.000000        0.00085259        0.02520330        0.02102778        0.00432137
      41         -3.308163        1.000000        0.00087940        0.02504424        0.02126100        0.00428511
      42         -3.308163        1.000000        0.00090587        0.02513487        0.02104535        0.00430197
      43         -3.308163        1.000000        0.00038286        0.01790664        0.03463663        0.00299163
      44         -3.308163        1.000000        0.00038074        0.01788382        0.03467773        0.00298777
      45         -3.308163        1.000000        0.00038297        0.01788702        0.03466832        0.00298760
      46         -3.308163        1.000000        0.00037998        0.01788392        0.03467962        0.00298764
      47         -3.308163        1.000000        0.00037936        0.01794689        0.03457619        0.00300076
      48         -3.308163        1.000000        0.00038223        0.01789846        0.03464949        0.00299069
      49         -3.308163        1.000000        0.00038365        0.01792580        0.03460518        0.00299509
      50         -3.308163        1.000000        0.00037974        0.01795117        0.03456725        0.00300275
      51         -3.308163        1.000000        0.00038614        0.01792062        0.03460640        0.00299326
      52         -3.308163        1.000000        0.00038378        0.01791538        0.03462110        0.00299239
      53         -3.308163        1.000000        0.00042086        0.01805629        0.03432083        0.00301414
      54         -3.308163        1.000000        0.00039680        0.01811089        0.03428144        0.00303207
      55         -3.308163        1.000000        0.00002604        0.02153819        0.02950845        0.00387961
      56         -3.308163        1.000000        0.00001357        0.02186947        0.02900210        0.00394692
      57         -3.308163        1.000000        0.00002473        0.02183914        0.02902349        0.00393658
      58         -3.308163        1.000000        0.00000549        0.01079114        0.04711802        0.00187198
      59         -3.308163        1.000000        0.00000298        0.01077882        0.04714407        0.00187098
      60         -3.308163        1.000000        0.00000663        0.01082591        0.04705998        0.00187884
      61         -3.308163        1.000000        0.00000501        0.01081070        0.04708715        0.00187600
      62         -3.308163        1.000000        0.00000745        0.01076934        0.04715060        0.00186827
      63         -3.308163        1.000000        0.00001619        0.01109011        0.04659799        0.00192473
      64         -3.308162        1.000000        0.00000323        0.00025146        0.06388571        0.00004340
      65         -3.049451        1.000000        0.98434371        0.00000000        0.01260056        0.00000000
      66         -3.049333        1.000000        0.96898346        0.01515940        0.00954143        0.00143720
      67         -3.049333        1.000000        0.96898345        0.01515941        0.00954144        0.00143719
      68         -3.049333        1.000000        0.96898344        0.01515941        0.00954146        0.00143718
      69         -3.049333        1.000000        0.96898344        0.01515941        0.00954146        0.00143718
      70         -3.049333        1.000000        0.96898346        0.01515941        0.00954144        0.00143719
      71         -3.049333        1.000000        0.96898343        0.01515942        0.00954148        0.00143717
      72         -3.049196        1.000000        0.95401928        0.02123624        0.01259189        0.00259695
      73         -3.049196        1.000000        0.95401929        0.02123622        0.01259191        0.00259695
      74         -3.049196        1.000000        0.95401925        0.02123627        0.01259184        0.00259694
      75         -3.049196        1.000000        0.95401929        0.02123623        0.01259190        0.00259695
      76         -3.049196        1.000000        0.95401924        0.02123629        0.01259181        0.00259694
      77         -3.049196        1.000000        0.95401926        0.02123626        0.01259186        0.00259694
      78         -3.049196        1.000000        0.95401923        0.02123630        0.01259180        0.00259694
      79         -3.049196        1.000000        0.95401930        0.02123621        0.01259192        0.00259695
      80         -3.049196        1.000000        0.95401926        0.02123626        0.01259185        0.00259694
      81         -3.049196        1.000000        0.95401925        0.02123627        0.01259184        0.00259694
      82         -3.049196        1.000000        0.95401927        0.02123624        0.01259187        0.00259694
      83         -3.049196        1.000000        0.95401925        0.02123628        0.01259183        0.00259694
      84         -3.049102        1.000000        0.94691810        0.03231110        0.01146614        0.00081826
      85         -3.049102        1.000000        0.94691811        0.03231111        0.01146612        0.00081826
      86         -3.049102        1.000000        0.94691811        0.03231111        0.01146612        0.00081826
      87         -3.049081        1.000000        0.93845226        0.01906211        0.02442951        0.00252896
      88         -3.049081        1.000000        0.93845227        0.01906211        0.02442951        0.00252896
      89         -3.049081        1.000000        0.93845227        0.01906211        0.02442951        0.00252896
      90         -3.049081        1.000000        0.93845227        0.01906211        0.02442951        0.00252896
      91         -3.049081        1.000000        0.93845227        0.01906212        0.02442950        0.00252895
      92         -3.049081        1.000000        0.93845227        0.01906211        0.02442951        0.00252896
      93         -3.049081        1.000000        0.93845227        0.01906212        0.02442950        0.00252895
      94         -3.049081        1.000000        0.93845227        0.01906211        0.02442951        0.00252896
      95         -3.048944        1.000000        0.93449778        0.02970621        0.01553238        0.00277438
      96         -3.048944        1.000000        0.93449778        0.02970621        0.01553236        0.00277438
      97         -3.048944        1.000000        0.93449785        0.02970611        0.01553261        0.00277436
      98         -3.048944        1.000000        0.93449781        0.02970618        0.01553245        0.00277437
      99         -3.048944        1.000000        0.93449781        0.02970618        0.01553245        0.00277437
     100         -3.048944        1.000000        0.93449785        0.02970612        0.01553259        0.00277436
     101         -3.048944        1.000000        0.93449788        0.02970608        0.01553270        0.00277435
     102         -3.048944        1.000000        0.93449785        0.02970612        0.01553259        0.00277436
     103         -3.048944        1.000000        0.93449769        0.02970633        0.01553207        0.00277441
     104         -3.048944        1.000000        0.93449777        0.02970623        0.01553232        0.00277439
     105         -3.048944        1.000000        0.93449773        0.02970627        0.01553221        0.00277440
     106         -3.048944        1.000000        0.93449770        0.02970632        0.01553210        0.00277441
     107         -3.048850        1.000000        0.92004863        0.02019268        0.03178887        0.00234351
     108         -3.048850        1.000000        0.92004863        0.02019268        0.03178887        0.00234351
     109         -3.048850        1.000000        0.92004863        0.02019268        0.03178887        0.00234351
     110         -3.048850        1.000000        0.92004863        0.02019268        0.03178887        0.00234351
     111         -3.048850        1.000000        0.92004863        0.02019268        0.03178887        0.00234351
     112         -3.048850        1.000000        0.92004863        0.02019268        0.03178887        0.00234351
     113         -3.048850        1.000000        0.92004864        0.02019269        0.03178886        0.00234351
     114         -3.048850        1.000000        0.92004863        0.02019268        0.03178887        0.00234351
     115         -3.048850        1.000000        0.92004863        0.02019268        0.03178887        0.00234351
     116         -3.048850        1.000000        0.92004863        0.02019268        0.03178887        0.00234351
     117         -3.048850        1.000000        0.92004863        0.02019268        0.03178887        0.00234351
     118         -3.048850        1.000000        0.92004863        0.02019268        0.03178887        0.00234351
     119         -3.048624        1.000000        0.89222973        0.00000005        0.06675693        0.00000001
     120         -3.048624        1.000000        0.89222972        0.00000004        0.06675695        0.00000001
     121         -3.048624        1.000000        0.89222973        0.00000002        0.06675699        0.00000001
     122         -3.048596        1.000000        0.90283323        0.01491729        0.03619057        0.00348515
     123         -3.048596        1.000000        0.90283327        0.01491725        0.03619068        0.00348514
     124         -3.048596        1.000000        0.90283354        0.01491699        0.03619136        0.00348508
     125         -3.048596        1.000000        0.90283319        0.01491737        0.03619038        0.00348516
     126         -3.048596        1.000000        0.90283332        0.01491723        0.03619074        0.00348513
     127         -3.048596        1.000000        0.90283336        0.01491726        0.03619067        0.00348514
     128         -3.048590        1.000000        0.90803264        0.00750358        0.05526118        0.00174199
     129         -3.048590        1.000000        0.90803257        0.00750328        0.05526187        0.00174192
     130         -3.048590        1.000000        0.90803261        0.00750335        0.05526171        0.00174194
     131         -3.048590        1.000000        0.90803264        0.00750355        0.05526125        0.00174198
     132         -3.048590        1.000000        0.90803228        0.00750373        0.05526071        0.00174202
     133         -3.048590        1.000000        0.90803256        0.00750331        0.05526178        0.00174193
     134         -3.048590        1.000000        0.90803256        0.00750345        0.05526147        0.00174196
     135         -3.048590        1.000000        0.90803247        0.00750345        0.05526142        0.00174196
     136         -3.048590        1.000000        0.90803263        0.00750330        0.05526183        0.00174193
     137         -3.048590        1.000000        0.90803263        0.00750343        0.05526150        0.00174196
     138         -3.048590        1.000000        0.90803265        0.00750332        0.05526179        0.00174193
     139         -3.048590        1.000000        0.90803260        0.00750327        0.05526188        0.00174192
     140         -3.048578        1.000000        0.94049975        0.03079994        0.00058138        0.01086947
     141         -3.048578        1.000000        0.94049974        0.03079994        0.00058138        0.01086947
     142         -3.048578        1.000000        0.94049962        0.03079983        0.00058169        0.01086941
     143         -3.048573        1.000000        0.91982207        0.01530907        0.03909974        0.00420402
     144         -3.048573        1.000000        0.91984804        0.01521599        0.03931366        0.00418454
     145         -3.048573        1.000000        0.91987357        0.01512451        0.03952391        0.00416539
     146         -3.048573        1.000000        0.91983490        0.01526298        0.03920567        0.00419437
     147         -3.048573        1.000000        0.91983357        0.01526768        0.03919487        0.00419535
     148         -3.048573        1.000000        0.91988331        0.01509013        0.03960292        0.00415821
     149         -3.048573        1.000000        0.91986522        0.01515431        0.03945541        0.00417162
     150         -3.048573        1.000000        0.91988657        0.01507805        0.03963067        0.00415567
     151         -3.048573        1.000000        0.91988643        0.01507864        0.03962932        0.00415579
     152         -3.048573        1.000000        0.91985616        0.01518683        0.03938067        0.00417843
     153         -3.048573        1.000000        0.91986813        0.01514524        0.03947628        0.00416976
     154         -3.048573        1.000000        0.91988324        0.01508990        0.03960344        0.00415815
     155         -3.048573        1.000000        0.91530101        0.03150415        0.00188083        0.00759353
     156         -3.048573        1.000000        0.91523541        0.03173918        0.00134071        0.00764272
     157         -3.048573        1.000000        0.91515781        0.03201833        0.00069922        0.00770116
     158         -3.048564        1.000000        0.93347726        0.02347266        0.02170812        0.00712714
     159         -3.048564        1.000000        0.93347735        0.02347278        0.02170776        0.00712720
     160         -3.048564        1.000000        0.93347732        0.02347276        0.02170781        0.00712719
     161         -3.048564        1.000000        0.93347740        0.02347281        0.02170771        0.00712721
     162         -3.048564        1.000000        0.93347732        0.02347273        0.02170791        0.00712717
     163         -3.048564        1.000000        0.93347739        0.02347281        0.02170770        0.00712721
     164         -3.048564        1.000000        0.93347738        0.02347280        0.02170773        0.00712720
     165         -3.048564        1.000000        0.93347736        0.02347277        0.02170781        0.00712719
     166         -3.048564        1.000000        0.93347692        0.02347237        0.02170884        0.00712702
     167         -3.048564        1.000000        0.93347674        0.02347232        0.02170884        0.00712702
     168         -3.048564        1.000000        0.93347691        0.02347234        0.02170893        0.00712701
     169         -3.048564        1.000000        0.93347721        0.02347264        0.02170815        0.00712714
     170         -3.048560        1.000000        0.92686340        0.01623866        0.04149987        0.00392092
     171         -3.048560        1.000000        0.92686342        0.01623869        0.04149981        0.00392093
     172         -3.048560        1.000000        0.92686337        0.01623863        0.04149996        0.00392091
     173         -3.048560        1.000000        0.92686373        0.01623903        0.04149885        0.00392109
     174         -3.048560        1.000000        0.92686338        0.01623865        0.04149992        0.00392091
     175         -3.048560        1.000000        0.92686390        0.01623923        0.04149830        0.00392117
     176         -3.048318        1.000000        0.93519310        0.01944969        0.02209133        0.00506510
     177         -3.048318        1.000000        0.93519310        0.01944969        0.02209133        0.00506510
     178         -3.048318        1.000000        0.93519312        0.01944970        0.02209132        0.00506510
     179         -3.048318        1.000000        0.93519306        0.01944968        0.02209136        0.00506510
     180         -3.048318        1.000000        0.93519299        0.01944965        0.02209141        0.00506510
     181         -3.048318        1.000000        0.93519298        0.01944964        0.02209141        0.00506510
     182         -3.048318        1.000000        0.93519310        0.01944969        0.02209133        0.00506510
     183         -3.048318        1.000000        0.93519303        0.01944966        0.02209138        0.00506510
     184         -3.048318        1.000000        0.93519307        0.01944968        0.02209135        0.00506510
     185         -3.048318        1.000000        0.93519305        0.01944967        0.02209136        0.00506510
     186         -3.048318        1.000000        0.93519312        0.01944970        0.02209132        0.00506510
     187         -3.048318        1.000000        0.93519313        0.01944971        0.02209131        0.00506510
     188         -3.048304        1.000000        0.92564955        0.01544045        0.02845605        0.00517128
     189         -3.048304        1.000000        0.92564949        0.01544043        0.02845608        0.00517128
     190         -3.048304        1.000000        0.92565157        0.01544131        0.02845474        0.00517123
     191         -3.048304        1.000000        0.92565068        0.01544093        0.02845531        0.00517125
     192         -3.048304        1.000000        0.92565135        0.01544122        0.02845488        0.00517124
     193         -3.048304        1.000000        0.92565174        0.01544138        0.02845463        0.00517123
     194         -3.048304        1.000000        0.92565181        0.01544141        0.02845459        0.00517123
     195         -3.048304        1.000000        0.92565204        0.01544151        0.02845444        0.00517122
     196         -3.048304        1.000000        0.92565149        0.01544128        0.02845479        0.00517123
     197         -3.048304        1.000000        0.92565222        0.01544159        0.02845432        0.00517122
     198         -3.048304        1.000000        0.92565249        0.01544170        0.02845415        0.00517121
     199         -3.048304        1.000000        0.92565215        0.01544156        0.02845437        0.00517122
     200         -3.048304        1.000000        0.92565154        0.01544130        0.02845476        0.00517123
     201         -3.048304        1.000000        0.92565190        0.01544145        0.02845453        0.00517122
     202         -3.048304        1.000000        0.92565236        0.01544165        0.02845423        0.00517121
     203         -3.048304        1.000000        0.92565239        0.01544166        0.02845421        0.00517121
     204         -3.048300        1.000000        0.91724176        0.01185968        0.03388323        0.00536153
     205         -3.048300        1.000000        0.91724183        0.01185970        0.03388319        0.00536153
     206         -3.048300        1.000000        0.91724226        0.01185989        0.03388291        0.00536152
     207         -3.048300        1.000000        0.91724504        0.01186107        0.03388112        0.00536145
     208         -3.048300        1.000000        0.91724422        0.01186072        0.03388165        0.00536147
     209         -3.048300        1.000000        0.91724208        0.01185981        0.03388302        0.00536152
     210         -3.048300        1.000000        0.91724483        0.01186098        0.03388125        0.00536146
     211         -3.048300        1.000000        0.91724369        0.01186050        0.03388199        0.00536148
     212         -3.048300        1.000000        0.91724269        0.01186007        0.03388263        0.00536151
     213         -3.048300        1.000000        0.91724309        0.01186024        0.03388238        0.00536150
     214         -3.048300        1.000000        0.91724238        0.01185994        0.03388283        0.00536151
     215         -3.048300        1.000000        0.91724257        0.01186002        0.03388271        0.00536151
     216         -3.048277        1.000000        0.93787601        0.01852718        0.01751536        0.00449334
     217         -3.048277        1.000000        0.93787602        0.01852717        0.01751535        0.00449335
     218         -3.048277        1.000000        0.93787607        0.01852716        0.01751528        0.00449338
     219         -3.048277        1.000000        0.93787608        0.01852716        0.01751525        0.00449340
     220         -3.048277        1.000000        0.93787609        0.01852715        0.01751524        0.00449340
     221         -3.048277        1.000000        0.93787606        0.01852717        0.01751530        0.00449337
     222         -3.048178        1.000000        0.93417967        0.01235360        0.02063654        0.00809344
     223         -3.048178        1.000000        0.93417968        0.01235358        0.02063658        0.00809344
     224         -3.048178        1.000000        0.93417960        0.01235369        0.02063631        0.00809347
     225         -3.048178        1.000000        0.93417966        0.01235362        0.02063650        0.00809345
     226         -3.048178        1.000000        0.93417965        0.01235363        0.02063645        0.00809345
     227         -3.048178        1.000000        0.93417963        0.01235366        0.02063637        0.00809345
     228         -3.048178        1.000000        0.93417957        0.01235373        0.02063621        0.00809347
     229         -3.048178        1.000000        0.93417961        0.01235368        0.02063635        0.00809346
     230         -3.048178        1.000000        0.93417976        0.01235348        0.02063686        0.00809341
     231         -3.048178        1.000000        0.93417969        0.01235357        0.02063662        0.00809344
     232         -3.048178        1.000000        0.93417971        0.01235355        0.02063667        0.00809343
     233         -3.048178        1.000000        0.93417977        0.01235348        0.02063686        0.00809341
     234         -3.048153        1.000000        0.93800590        0.01102130        0.01974290        0.00679490
     235         -3.048153        1.000000        0.93800590        0.01102130        0.01974290        0.00679490
     236         -3.048153        1.000000        0.93800591        0.01102130        0.01974290        0.00679490
     237         -3.048153        1.000000        0.93800591        0.01102130        0.01974290        0.00679490
     238         -3.048153        1.000000        0.93800589        0.01102131        0.01974288        0.00679490
     239         -3.048153        1.000000        0.93800589        0.01102131        0.01974288        0.00679490
     240         -3.048153        1.000000        0.93800590        0.01102130        0.01974290        0.00679491
     241         -3.048153        1.000000        0.93800589        0.01102131        0.01974289        0.00679490
     242         -3.048153        1.000000        0.93800594        0.01102126        0.01974295        0.00679491
     243         -3.048153        1.000000        0.93800594        0.01102126        0.01974295        0.00679491
     244         -3.048153        1.000000        0.93800586        0.01102135        0.01974283        0.00679490
     245         -3.048153        1.000000        0.93800584        0.01102138        0.01974279        0.00679489
     246         -3.048086        1.000000        0.94315135        0.00000000        0.03176910        0.00000000
     247         -3.048086        1.000000        0.94315135        0.00000000        0.03176910        0.00000001
     248         -3.048050        1.000000        0.94871833        0.00020413        0.02497089        0.00497464
     249         -3.048050        1.000000        0.94871833        0.00020413        0.02497089        0.00497464
     250         -3.048050        1.000000        0.94871833        0.00020413        0.02497089        0.00497464
     251         -3.048050        1.000000        0.94871833        0.00020413        0.02497089        0.00497464
     252         -3.048050        1.000000        0.94871833        0.00020413        0.02497089        0.00497464
     253         -3.048050        1.000000        0.94871833        0.00020413        0.02497089        0.00497464
     254         -3.048020        1.000000        0.95381584        0.00000000        0.01924440        0.00954832
     255         -3.048020        1.000000        0.95381584        0.00000000        0.01924440        0.00954832
     256         -3.048020        1.000000        0.95381583        0.00000000        0.01924440        0.00954832
     257         -1.714411        1.000000        0.00000000        0.00936764        0.00000002        0.00119940
     258         -1.714411        1.000000        0.00000000        0.00936765        0.00000001        0.00119940
     259         -1.714411        1.000000        0.00000000        0.00936764        0.00000002        0.00119940