# Projected DOS for atomic kind Ni at iteration step i = 0, E(Fermi) =     0.554211 a.u.
#     MO Eigenvalue [a.u.]      Occupation                 s                 p                 d                 f
       1         -3.348339        1.000000        0.95733881        0.00000130        0.00000133        0.00000025
       2         -3.348339        1.000000        0.95382901        0.00025753        0.00015996        0.00003642
       3         -3.348339        1.000000        0.95383710        0.00025858        0.00015967        0.00003642
       4         -3.348339        1.000000        0.95384164        0.00025845        0.00015966        0.00003625
       5         -3.348339        1.000000        0.95383433        0.00025851        0.00015953        0.00003637
       6         -3.348339        1.000000        0.95383222        0.00025805        0.00016021        0.00003633
       7         -3.348339        1.000000        0.95385408        0.00025829        0.00015931        0.00003617
       8         -3.348339        1.000000        0.95044748        0.00026861        0.00016611        0.00009319
       9         -3.348339        1.000000        0.95051163        0.00026831        0.00016911        0.00009266
      10         -3.348339        1.000000        0.95051117        0.00026803        0.00016946        0.00009264
      11         -3.348339        1.000000        0.95056786        0.00026393        0.00017524        0.00009104
      12         -3.348339        1.000000        0.95052186        0.00026993        0.00016699        0.00009302
      13         -3.348339        1.000000        0.95053892        0.00026939        0.00016846        0.00009283
      14         -3.348339        1.000000        0.95050535        0.00027036        0.00016648        0.00009337
      15         -3.348339        1.000000        0.95052497        0.00026790        0.00016995        0.00009256
      16         -3.348339        1.000000        0.95049529        0.00027125        0.00016530        0.00009370
      17         -3.348339        1.000000        0.95053322        0.00026427        0.00017411        0.00009151
      18         -3.348339        1.000000        0.95058087        0.00026445        0.00017522        0.00009117
      19         -3.348339        1.000000        0.95055383        0.00026668        0.00017198        0.00009194
      20         -3.348339        1.000000        0.95249425        0.00002223        0.00049265        0.00000811
      21         -3.348339        1.000000        0.95254144        0.00001905        0.00049747        0.00000697
      22         -3.348339        1.000000        0.95262515        0.00001006        0.00050934        0.00000384
      23         -3.348339        1.000000        0.94689012        0.00029083        0.00002402        0.00012793
      24         -3.348339        1.000000        0.94702262        0.00029667        0.00001997        0.00012942
      25         -3.348339        1.000000        0.94697696        0.00029385        0.00002268        0.00012882
      26         -3.348339        1.000000        0.94702697        0.00028371        0.00003867        0.00012610
      27         -3.348339        1.000000        0.94693581        0.00029688        0.00001726        0.00013008
      28         -3.348339        1.000000        0.94697954        0.00029487        0.00002128        0.00012938
      29         -3.348338        1.000000        0.94691693        0.00029127        0.00002465        0.00012850
      30         -3.348338        1.000000        0.94688344        0.00029269        0.00002160        0.00012874
      31         -3.348338        1.000000        0.94783390        0.00008005        0.00035228        0.00006214
      32         -3.348338        1.000000        0.94832695        0.00007319        0.00037720        0.00006059
      33         -3.348338        1.000000        0.94831229        0.00007067        0.00038074        0.00005986
      34         -3.348338        1.000000        0.94829066        0.00008096        0.00036543        0.00006350
      35         -3.348338        1.000000        0.94813901        0.00007284        0.00037229        0.00006069
      36         -3.348338        1.000000        0.94812111        0.00007561        0.00036810        0.00006152
      37         -3.348338        1.000000        0.94825032        0.00007076        0.00037896        0.00006026
      38         -3.348338        1.000000        0.94816988        0.00007747        0.00036673        0.00006222
      39         -3.348338        1.000000        0.94825003        0.00007163        0.00037645        0.00006031
      40         -3.348338        1.000000        0.94823918        0.00007255        0.00037585        0.00006055
      41         -3.348338        1.000000        0.94836477        0.00007146        0.00038155        0.00006022
      42         -3.348338        1.000000        0.94824606        0.00007504        0.00037248        0.00006142
      43         -3.348338        1.000000        0.94414196        0.00013556        0.00016118        0.00007878
      44         -3.348338        1.000000        0.94425240        0.00014491        0.00014996        0.00008457
      45         -3.348338        1.000000        0.94399928        0.00014353        0.00014388        0.00008265
      46         -3.348338        1.000000        0.94412666        0.00014445        0.00014560        0.00008411
      47         -3.348338        1.000000        0.94413658        0.00014530        0.00014790        0.00008386
      48         -3.348338        1.000000        0.94416521        0.00014432        0.00014868        0.00008391
      49         -3.348338        1.000000        0.94404280        0.00014679        0.00014079        0.00008501
      50         -3.348338        1.000000        0.94398166        0.00014648        0.00013848        0.00008475
      51         -3.348338        1.000000        0.94407091        0.00014666        0.00014273        0.00008408
      52         -3.348338        1.000000        0.94392752        0.00014612        0.00013873        0.00008371
      53         -3.348338        1.000000        0.94343456        0.00013288        0.00014673        0.00007460
      54         -3.348338        1.000000        0.94402188        0.00014492        0.00014312        0.00008372
      55         -3.348338        1.000000        0.93982479        0.00004923        0.00012381        0.00002483
      56         -3.348338        1.000000        0.93982569        0.00006847        0.00011364        0.00002928
      57         -3.348338        1.000000        0.94111461        0.00006900        0.00018169        0.00003073
      58         -3.348338        1.000000        0.94305625        0.00004615        0.00032337        0.00002127
      59         -3.348338        1.000000        0.94264836        0.00005364        0.00029257        0.00002354
      60         -3.348338        1.000000        0.94199614        0.00006427        0.00024165        0.00002776
      61         -3.348338        1.000000        0.94196587        0.00006130        0.00024861        0.00002576
      62         -3.348338        1.000000        0.94340385        0.00003435        0.00036696        0.00001470
      63         -3.348338        1.000000        0.94060827        0.00007786        0.00015091        0.00003205
      64         -3.348338        1.000000        0.94215379        0.00004571        0.00027555        0.00002009
      65         -3.054403        1.000000        0.00303927        0.00000000        0.00000000        0.00000000
      66         -3.054286        1.000000        0.00204412        0.00234965        0.00012304        0.00035200
      67         -3.054286        1.000000        0.00204410        0.00234970        0.00012299        0.00035201
      68         -3.054286        1.000000        0.00204410        0.00234969        0.00012299        0.00035201
      69         -3.054286        1.000000        0.00204409        0.00234971        0.00012297        0.00035202
      70         -3.054286        1.000000        0.00204410        0.00234970        0.00012299        0.00035201
      71         -3.054286        1.000000        0.00204411        0.00234969        0.00012300        0.00035201
      72         -3.054149        1.000000        0.00135662        0.00338161        0.00431777        0.00049521
      73         -3.054149        1.000000        0.00135661        0.00338162        0.00431785        0.00049520
      74         -3.054149        1.000000        0.00135661        0.00338162        0.00431784        0.00049520
      75         -3.054149        1.000000        0.00135661        0.00338162        0.00431787        0.00049520
      76         -3.054149        1.000000        0.00135661        0.00338162        0.00431788        0.00049519
      77         -3.054149        1.000000        0.00135662        0.00338162        0.00431783        0.00049520
      78         -3.054149        1.000000        0.00135661        0.00338162        0.00431788        0.00049519
      79         -3.054149        1.000000        0.00135662        0.00338161        0.00431780        0.00049521
      80         -3.054149        1.000000        0.00135661        0.00338162        0.00431786        0.00049520
      81         -3.054149        1.000000        0.00135661        0.00338162        0.00431791        0.00049519
      82         -3.054149        1.000000        0.00135661        0.00338162        0.00431789        0.00049519
      83         -3.054149        1.000000        0.00135662        0.00338161        0.00431779        0.00049521
      84         -3.054052        1.000000        0.00000000        0.00729718        0.00000002        0.00119322
      85         -3.054052        1.000000        0.00000000        0.00729718        0.00000001        0.00119322
      86         -3.054052        1.000000        0.00000000        0.00729718        0.00000001        0.00119322
      87         -3.054034        1.000000        0.00084043        0.00345737        0.01087009        0.00036311
      88         -3.054034        1.000000        0.00084043        0.00345736        0.01087010        0.00036310
      89         -3.054034        1.000000        0.00084043        0.00345736        0.01087010        0.00036310
      90         -3.054034        1.000000        0.00084043        0.00345736        0.01087010        0.00036310
      91         -3.054034        1.000000        0.00084043        0.00345736        0.01087010        0.00036310
      92         -3.054034        1.000000        0.00084043        0.00345736        0.01087010        0.00036310
      93         -3.054034        1.000000        0.00084043        0.00345736        0.01087010        0.00036310
      94         -3.054034        1.000000        0.00084043        0.00345736        0.01087010        0.00036310
      95         -3.053895        1.000000        0.00000000        0.00537971        0.01109725        0.00102133
      96         -3.053895        1.000000        0.00000000        0.00537972        0.01109718        0.00102134
      97         -3.053895        1.000000        0.00000000        0.00537968        0.01109750        0.00102129
      98         -3.053895        1.000000        0.00000000        0.00537969        0.01109743        0.00102130
      99         -3.053895        1.000000        0.00000000        0.00537970        0.01109730        0.00102132
     100         -3.053895        1.000000        0.00000000        0.00537966        0.01109774        0.00102125
     101         -3.053895        1.000000        0.00000000        0.00537968        0.01109758        0.00102128
     102         -3.053895        1.000000        0.00000000        0.00537967        0.01109761        0.00102127
     103         -3.053895        1.000000        0.00000000        0.00537965        0.01109781        0.00102124
     104         -3.053895        1.000000        0.00000000        0.00537967        0.01109768        0.00102126
     105         -3.053895        1.000000        0.00000000        0.00537968        0.01109755        0.00102128
     106         -3.053895        1.000000        0.00000000        0.00537965        0.01109778        0.00102125
     107         -3.053802        1.000000        0.00000000        0.00354780        0.02165236        0.00044197
     108         -3.053802        1.000000        0.00000000        0.00354779        0.02165236        0.00044197
     109         -3.053802        1.000000        0.00000000        0.00354779        0.02165237        0.00044197
     110         -3.053802        1.000000        0.00000000        0.00354779        0.02165237        0.00044197
     111         -3.053802        1.000000        0.00000000        0.00354779        0.02165237        0.00044197
     112         -3.053802        1.000000        0.00000000        0.00354779        0.02165237        0.00044197
     113         -3.053802        1.000000        0.00000000        0.00354779        0.02165237        0.00044197
     114         -3.053802        1.000000        0.00000000        0.00354779        0.02165237        0.00044197
     115         -3.053802        1.000000        0.00000000        0.00354779        0.02165237        0.00044197
     116         -3.053802        1.000000        0.00000000        0.00354779        0.02165236        0.00044197
     117         -3.053802        1.000000        0.00000000        0.00354779        0.02165236        0.00044197
     118         -3.053802        1.000000        0.00000000        0.00354779        0.02165237        0.00044197
     119         -3.053577        1.000000        0.00000000        0.00000000        0.04104078        0.00000000
     120         -3.053577        1.000000        0.00000000        0.00000000        0.04104078        0.00000000
     121         -3.053577        1.000000        0.00000000        0.00000000        0.04104074        0.00000001
     122         -3.053548        1.000000        0.00000000        0.00000005        0.04259444        0.00000713
     123         -3.053548        1.000000        0.00000000        0.00000004        0.04259451        0.00000712
     124         -3.053548        1.000000        0.00000000        0.00000001        0.04259484        0.00000706
     125         -3.053548        1.000000        0.00000000        0.00000003        0.04259462        0.00000710
     126         -3.053548        1.000000        0.00000000        0.00000006        0.04259435        0.00000714
     127         -3.053548        1.000000        0.00000000        0.00000008        0.04259410        0.00000718
     128         -3.053542        1.000000        0.00000000        0.00189692        0.02234826        0.00323407
     129         -3.053542        1.000000        0.00000000        0.00189696        0.02234785        0.00323413
     130         -3.053542        1.000000        0.00000000        0.00189697        0.02234780        0.00323414
     131         -3.053542        1.000000        0.00000000        0.00189694        0.02234808        0.00323410
     132         -3.053542        1.000000        0.00000000        0.00189692        0.02234830        0.00323406
     133         -3.053542        1.000000        0.00000000        0.00189694        0.02234805        0.00323410
     134         -3.053542        1.000000        0.00000000        0.00189691        0.02234838        0.00323405
     135         -3.053542        1.000000        0.00000000        0.00189695        0.02234799        0.00323411
     136         -3.053542        1.000000        0.00000000        0.00189697        0.02234776        0.00323415
     137         -3.053542        1.000000        0.00000000        0.00189693        0.02234815        0.00323408
     138         -3.053542        1.000000        0.00000000        0.00189696        0.02234780        0.00323414
     139         -3.053542        1.000000        0.00000000        0.00189694        0.02234807        0.00323410
     140         -3.053526        1.000000        0.00186668        0.00000001        0.01538603        0.00000002
     141         -3.053526        1.000000        0.00186668        0.00000001        0.01538604        0.00000002
     142         -3.053526        1.000000        0.00186667        0.00000004        0.01538593        0.00000007
     143         -3.053524        1.000000        0.00028202        0.00168676        0.02028119        0.00286597
     144         -3.053524        1.000000        0.00032297        0.00193168        0.01675241        0.00328212
     145         -3.053524        1.000000        0.00032514        0.00194460        0.01656622        0.00330408
     146         -3.053524        1.000000        0.00029300        0.00175241        0.01933527        0.00297753
     147         -3.053524        1.000000        0.00032534        0.00194585        0.01654824        0.00330620
     148         -3.053524        1.000000        0.00033430        0.00199938        0.01577697        0.00339715
     149         -3.053524        1.000000        0.00033210        0.00198623        0.01596638        0.00337482
     150         -3.053524        1.000000        0.00033483        0.00200261        0.01573049        0.00340264
     151         -3.053524        1.000000        0.00033728        0.00201724        0.01551965        0.00342750
     152         -3.053524        1.000000        0.00032668        0.00195385        0.01643293        0.00331980
     153         -3.053524        1.000000        0.00031056        0.00185737        0.01782289        0.00315587
     154         -3.053524        1.000000        0.00009605        0.00057450        0.03630614        0.00097614
     155         -3.053524        1.000000        0.00006492        0.00038830        0.03898889        0.00065976
     156         -3.053524        1.000000        0.00025317        0.00151416        0.02276783        0.00257272
     157         -3.053524        1.000000        0.00011624        0.00069521        0.03456702        0.00118123
     158         -3.053514        1.000000        0.00079558        0.00224623        0.00740941        0.00376884
     159         -3.053514        1.000000        0.00079562        0.00224610        0.00740990        0.00376863
     160         -3.053514        1.000000        0.00079562        0.00224611        0.00740988        0.00376864
     161         -3.053514        1.000000        0.00079560        0.00224616        0.00740967        0.00376872
     162         -3.053514        1.000000        0.00079562        0.00224611        0.00740985        0.00376864
     163         -3.053514        1.000000        0.00079562        0.00224610        0.00740989        0.00376863
     164         -3.053514        1.000000        0.00079562        0.00224610        0.00740987        0.00376863
     165         -3.053514        1.000000        0.00079561        0.00224614        0.00740975        0.00376869
     166         -3.053514        1.000000        0.00079554        0.00224630        0.00740921        0.00376895
     167         -3.053514        1.000000        0.00079550        0.00224638        0.00740907        0.00376908
     168         -3.053514        1.000000        0.00079555        0.00224629        0.00740926        0.00376893
     169         -3.053514        1.000000        0.00079559        0.00224619        0.00740962        0.00376878
     170         -3.053511        1.000000        0.00000003        0.00433275        0.00000026        0.00715135
     171         -3.053511        1.000000        0.00000003        0.00433273        0.00000032        0.00715133
     172         -3.053511        1.000000        0.00000002        0.00433277        0.00000018        0.00715139
     173         -3.053511        1.000000        0.00000013        0.00433247        0.00000125        0.00715091
     174         -3.053511        1.000000        0.00000002        0.00433276        0.00000022        0.00715137
     175         -3.053511        1.000000        0.00000018        0.00433235        0.00000169        0.00715071
     176         -3.053265        1.000000        0.00000000        0.00243776        0.01148089        0.00429427
     177         -3.053265        1.000000        0.00000000        0.00243777        0.01148086        0.00429426
     178         -3.053265        1.000000        0.00000000        0.00243777        0.01148086        0.00429426
     179         -3.053265        1.000000        0.00000000        0.00243777        0.01148085        0.00429426
     180         -3.053265        1.000000        0.00000000        0.00243777        0.01148088        0.00429427
     181         -3.053265        1.000000        0.00000000        0.00243777        0.01148086        0.00429426
     182         -3.053265        1.000000        0.00000000        0.00243777        0.01148087        0.00429427
     183         -3.053265        1.000000        0.00000000        0.00243774        0.01148101        0.00429429
     184         -3.053265        1.000000        0.00000000        0.00243776        0.01148093        0.00429428
     185         -3.053265        1.000000        0.00000000        0.00243774        0.01148100        0.00429429
     186         -3.053265        1.000000        0.00000000        0.00243774        0.01148102        0.00429429
     187         -3.053265        1.000000        0.00000000        0.00243775        0.01148096        0.00429428
     188         -3.053252        1.000000        0.00000000        0.00109896        0.01859589        0.00560415
     189         -3.053252        1.000000        0.00000000        0.00109909        0.01859512        0.00560400
     190         -3.053252        1.000000        0.00000000        0.00109905        0.01859539        0.00560405
     191         -3.053252        1.000000        0.00000000        0.00109900        0.01859563        0.00560410
     192         -3.053252        1.000000        0.00000000        0.00109868        0.01859744        0.00560446
     193         -3.053252        1.000000        0.00000000        0.00109882        0.01859665        0.00560430
     194         -3.053252        1.000000        0.00000000        0.00109867        0.01859753        0.00560448
     195         -3.053252        1.000000        0.00000000        0.00109862        0.01859779        0.00560453
     196         -3.053252        1.000000        0.00000000        0.00109843        0.01859889        0.00560475
     197         -3.053252        1.000000        0.00000000        0.00109820        0.01860017        0.00560501
     198         -3.053252        1.000000        0.00000000        0.00109848        0.01859859        0.00560469
     199         -3.053252        1.000000        0.00000000        0.00109798        0.01860143        0.00560526
     200         -3.053252        1.000000        0.00000000        0.00109801        0.01860127        0.00560523
     201         -3.053252        1.000000        0.00000000        0.00109840        0.01859905        0.00560479
     202         -3.053252        1.000000        0.00000000        0.00109871        0.01859732        0.00560444
     203         -3.053252        1.000000        0.00000000        0.00109892        0.01859613        0.00560420
     204         -3.053250        1.000000        0.00000000        0.00000015        0.02482094        0.00685408
     205         -3.053250        1.000000        0.00000000        0.00000015        0.02482097        0.00685408
     206         -3.053250        1.000000        0.00000000        0.00000013        0.02482108        0.00685411
     207         -3.053250        1.000000        0.00000000        0.00000026        0.02482035        0.00685396
     208         -3.053250        1.000000        0.00000000        0.00000028        0.02482022        0.00685393
     209         -3.053250        1.000000        0.00000000        0.00000022        0.02482056        0.00685400
     210         -3.053250        1.000000        0.00000000        0.00000039        0.02481960        0.00685381
     211         -3.053250        1.000000        0.00000000        0.00000065        0.02481814        0.00685352
     212         -3.053250        1.000000        0.00000000        0.00000142        0.02481376        0.00685264
     213         -3.053250        1.000000        0.00000000        0.00000140        0.02481389        0.00685266
     214         -3.053250        1.000000        0.00000000        0.00000169        0.02481226        0.00685234
     215         -3.053250        1.000000        0.00000000        0.00000151        0.02481326        0.00685254
     216         -3.053223        1.000000        0.00031400        0.00134263        0.01965503        0.00029019
     217         -3.053223        1.000000        0.00031400        0.00134263        0.01965504        0.00029019
     218         -3.053223        1.000000        0.00031402        0.00134259        0.01965508        0.00029018
     219         -3.053223        1.000000        0.00031402        0.00134259        0.01965508        0.00029018
     220         -3.053223        1.000000        0.00031402        0.00134258        0.01965508        0.00029018
     221         -3.053223        1.000000        0.00031401        0.00134260        0.01965506        0.00029019
     222         -3.053127        1.000000        0.00000000        0.00027882        0.01324723        0.01122860
     223         -3.053127        1.000000        0.00000000        0.00027881        0.01324731        0.01122858
     224         -3.053127        1.000000        0.00000000        0.00027884        0.01324702        0.01122863
     225         -3.053127        1.000000        0.00000000        0.00027884        0.01324705        0.01122862
     226         -3.053127        1.000000        0.00000000        0.00027883        0.01324717        0.01122861
     227         -3.053127        1.000000        0.00000000        0.00027887        0.01324676        0.01122867
     228         -3.053127        1.000000        0.00000000        0.00027886        0.01324688        0.01122865
     229         -3.053127        1.000000        0.00000000        0.00027887        0.01324674        0.01122868
     230         -3.053127        1.000000        0.00000000        0.00027886        0.01324687        0.01122865
     231         -3.053127        1.000000        0.00000000        0.00027887        0.01324672        0.01122867
     232         -3.053127        1.000000        0.00000000        0.00027885        0.01324694        0.01122864
     233         -3.053127        1.000000        0.00000000        0.00027887        0.01324671        0.01122867
     234         -3.053100        1.000000        0.00011974        0.00004963        0.01626331        0.00802027
     235         -3.053100        1.000000        0.00011975        0.00004963        0.01626329        0.00802027
     236         -3.053100        1.000000        0.00011974        0.00004963        0.01626331        0.00802027
     237         -3.053100        1.000000        0.00011975        0.00004963        0.01626329        0.00802027
     238         -3.053100        1.000000        0.00011974        0.00004963        0.01626331        0.00802027
     239         -3.053100        1.000000        0.00011975        0.00004963        0.01626326        0.00802028
     240         -3.053100        1.000000        0.00011975        0.00004963        0.01626326        0.00802028
     241         -3.053100        1.000000        0.00011974        0.00004963        0.01626331        0.00802027
     242         -3.053100        1.000000        0.00011975        0.00004963        0.01626323        0.00802028
     243         -3.053100        1.000000        0.00011975        0.00004963        0.01626326        0.00802028
     244         -3.053100        1.000000        0.00011974        0.00004964        0.01626332        0.00802027
     245         -3.053100        1.000000        0.00011974        0.00004964        0.01626333        0.00802027
     246         -3.053030        1.000000        0.00000000        0.00000000        0.02509769        0.00000000
     247         -3.053030        1.000000        0.00000000        0.00000000        0.02509767        0.00000001
     248         -3.052996        1.000000        0.00000000        0.00000000        0.01222147        0.00892510
     249         -3.052996        1.000000        0.00000000        0.00000000        0.01222147        0.00892510
     250         -3.052996        1.000000        0.00000000        0.00000000        0.01222146        0.00892510
     251         -3.052996        1.000000        0.00000000        0.00000000        0.01222147        0.00892510
     252         -3.052996        1.000000        0.00000000        0.00000000        0.01222147        0.00892510
     253         -3.052996        1.000000        0.00000000        0.00000000        0.01222147        0.00892510
     254         -3.052968        1.000000        0.00000000        0.00000000        0.00000000        0.01740292
     255         -3.052968        1.000000        0.00000000        0.00000000        0.00000001        0.01740292
     256         -3.052968        1.000000        0.00000000        0.00000000        0.00000001        0.01740292
     257         -1.753562        1.000000        0.00000000        0.98960433        0.00000000        0.00001532
     258         -1.753562        1.000000        0.00000000        0.98960430        0.00000000        0.00001532
     259         -1.753562        1.000000        0.00000000        0.98960431        0.00000000        0.00001532