# Projected DOS for atomic kind Ni at iteration step i = 0, E(Fermi) =     0.554211 a.u.
#     MO Eigenvalue [a.u.]      Occupation                 s                 p                 d                 f
       1         -3.308164        1.000000        0.95709531        0.00000034        0.00000044        0.00000009
       2         -3.308164        1.000000        0.95357017        0.00025978        0.00016008        0.00003637
       3         -3.308164        1.000000        0.95358215        0.00025955        0.00016028        0.00003616
       4         -3.308164        1.000000        0.95357875        0.00025966        0.00016015        0.00003621
       5         -3.308164        1.000000        0.95358017        0.00025964        0.00016019        0.00003622
       6         -3.308164        1.000000        0.95356544        0.00025947        0.00016037        0.00003636
       7         -3.308164        1.000000        0.95356189        0.00025905        0.00016095        0.00003637
       8         -3.308163        1.000000        0.95022783        0.00027132        0.00016816        0.00009371
       9         -3.308163        1.000000        0.95022598        0.00027284        0.00016637        0.00009413
      10         -3.308163        1.000000        0.95023329        0.00027272        0.00016667        0.00009404
      11         -3.308163        1.000000        0.95020197        0.00027247        0.00016618        0.00009426
      12         -3.308163        1.000000        0.95024445        0.00027060        0.00016937        0.00009336
      13         -3.308163        1.000000        0.95021785        0.00027228        0.00016676        0.00009404
      14         -3.308163        1.000000        0.95022295        0.00027282        0.00016630        0.00009413
      15         -3.308163        1.000000        0.95023811        0.00027136        0.00016837        0.00009364
      16         -3.308163        1.000000        0.95022242        0.00027275        0.00016643        0.00009415
      17         -3.308163        1.000000        0.95025961        0.00026800        0.00017237        0.00009242
      18         -3.308163        1.000000        0.95024184        0.00027088        0.00016901        0.00009347
      19         -3.308163        1.000000        0.95028892        0.00026170        0.00018015        0.00009046
      20         -3.308163        1.000000        0.95242363        0.00000418        0.00052061        0.00000154
      21         -3.308163        1.000000        0.95237218        0.00001073        0.00051197        0.00000378
      22         -3.308163        1.000000        0.95235876        0.00001261        0.00050948        0.00000441
      23         -3.308163        1.000000        0.94660315        0.00030315        0.00000974        0.00013259
      24         -3.308163        1.000000        0.94660306        0.00029708        0.00001830        0.00013063
      25         -3.308163        1.000000        0.94661094        0.00030120        0.00001276        0.00013190
      26         -3.308163        1.000000        0.94660329        0.00030261        0.00001052        0.00013238
      27         -3.308163        1.000000        0.94666990        0.00029529        0.00002298        0.00012978
      28         -3.308163        1.000000        0.94661610        0.00030068        0.00001365        0.00013180
      29         -3.308163        1.000000        0.94660098        0.00030332        0.00000943        0.00013258
      30         -3.308163        1.000000        0.94665880        0.00029323        0.00002556        0.00012933
      31         -3.308163        1.000000        0.94802038        0.00007153        0.00038234        0.00006096
      32         -3.308163        1.000000        0.94806086        0.00007084        0.00038458        0.00006074
      33         -3.308163        1.000000        0.94808848        0.00006864        0.00038847        0.00006009
      34         -3.308163        1.000000        0.94808015        0.00006852        0.00038874        0.00005995
      35         -3.308163        1.000000        0.94810122        0.00006779        0.00039006        0.00005982
      36         -3.308163        1.000000        0.94807440        0.00006857        0.00038835        0.00005999
      37         -3.308163        1.000000        0.94808309        0.00006811        0.00038910        0.00005991
      38         -3.308163        1.000000        0.94808811        0.00006769        0.00038978        0.00005974
      39         -3.308163        1.000000        0.94808424        0.00006917        0.00038775        0.00006018
      40         -3.308163        1.000000        0.94807821        0.00006980        0.00038650        0.00006046
      41         -3.308163        1.000000        0.94801619        0.00007398        0.00037863        0.00006145
      42         -3.308163        1.000000        0.94809603        0.00007254        0.00038264        0.00006073
      43         -3.308163        1.000000        0.94370716        0.00014929        0.00013904        0.00008675
      44         -3.308163        1.000000        0.94369541        0.00014937        0.00013834        0.00008682
      45         -3.308163        1.000000        0.94369953        0.00014965        0.00013795        0.00008695
      46         -3.308163        1.000000        0.94369433        0.00014949        0.00013813        0.00008689
      47         -3.308163        1.000000        0.94372061        0.00014813        0.00014187        0.00008618
      48         -3.308163        1.000000        0.94370419        0.00014891        0.00013950        0.00008653
      49         -3.308163        1.000000        0.94371466        0.00014919        0.00013976        0.00008666
      50         -3.308163        1.000000        0.94372256        0.00014723        0.00014368        0.00008561
      51         -3.308163        1.000000        0.94371830        0.00014955        0.00013883        0.00008690
      52         -3.308163        1.000000        0.94371218        0.00014975        0.00013838        0.00008703
      53         -3.308163        1.000000        0.94380873        0.00014891        0.00014448        0.00008576
      54         -3.308163        1.000000        0.94379752        0.00014535        0.00015191        0.00008402
      55         -3.308163        1.000000        0.94454752        0.00000865        0.00048682        0.00000470
      56         -3.308163        1.000000        0.94465878        0.00000380        0.00050327        0.00000209
      57         -3.308163        1.000000        0.94466859        0.00000630        0.00049751        0.00000365
      58         -3.308163        1.000000        0.93996238        0.00008429        0.00013296        0.00003373
      59         -3.308163        1.000000        0.93995220        0.00008365        0.00013397        0.00003333
      60         -3.308163        1.000000        0.93997665        0.00008375        0.00013484        0.00003339
      61         -3.308163        1.000000        0.93996963        0.00008387        0.00013408        0.00003355
      62         -3.308163        1.000000        0.93995365        0.00008409        0.00013309        0.00003350
      63         -3.308163        1.000000        0.94011407        0.00008284        0.00014031        0.00003376
      64         -3.308162        1.000000        0.93581061        0.00000150        0.00000336        0.00000073
      65         -3.049451        1.000000        0.00305573        0.00000000        0.00000000        0.00000000
      66         -3.049333        1.000000        0.00205452        0.00234989        0.00012207        0.00035202
      67         -3.049333        1.000000        0.00205452        0.00234989        0.00012207        0.00035202
      68         -3.049333        1.000000        0.00205451        0.00234991        0.00012206        0.00035202
      69         -3.049333        1.000000        0.00205452        0.00234990        0.00012206        0.00035202
      70         -3.049333        1.000000        0.00205452        0.00234989        0.00012207        0.00035202
      71         -3.049333        1.000000        0.00205451        0.00234992        0.00012205        0.00035202
      72         -3.049196        1.000000        0.00136347        0.00338048        0.00431699        0.00049471
      73         -3.049196        1.000000        0.00136348        0.00338048        0.00431696        0.00049472
      74         -3.049196        1.000000        0.00136347        0.00338048        0.00431704        0.00049470
      75         -3.049196        1.000000        0.00136348        0.00338048        0.00431698        0.00049471
      76         -3.049196        1.000000        0.00136347        0.00338048        0.00431708        0.00049470
      77         -3.049196        1.000000        0.00136347        0.00338048        0.00431702        0.00049471
      78         -3.049196        1.000000        0.00136347        0.00338049        0.00431709        0.00049469
      79         -3.049196        1.000000        0.00136348        0.00338048        0.00431694        0.00049472
      80         -3.049196        1.000000        0.00136347        0.00338048        0.00431703        0.00049470
      81         -3.049196        1.000000        0.00136347        0.00338048        0.00431704        0.00049470
      82         -3.049196        1.000000        0.00136347        0.00338048        0.00431700        0.00049471
      83         -3.049196        1.000000        0.00136347        0.00338048        0.00431706        0.00049470
      84         -3.049102        1.000000        0.00000000        0.00729382        0.00000002        0.00119257
      85         -3.049102        1.000000        0.00000000        0.00729382        0.00000001        0.00119257
      86         -3.049102        1.000000        0.00000000        0.00729382        0.00000001        0.00119257
      87         -3.049081        1.000000        0.00084479        0.00345593        0.01086352        0.00036292
      88         -3.049081        1.000000        0.00084479        0.00345593        0.01086351        0.00036292
      89         -3.049081        1.000000        0.00084479        0.00345593        0.01086352        0.00036292
      90         -3.049081        1.000000        0.00084479        0.00345593        0.01086351        0.00036292
      91         -3.049081        1.000000        0.00084479        0.00345593        0.01086351        0.00036292
      92         -3.049081        1.000000        0.00084479        0.00345593        0.01086351        0.00036292
      93         -3.049081        1.000000        0.00084479        0.00345593        0.01086351        0.00036292
      94         -3.049081        1.000000        0.00084479        0.00345593        0.01086351        0.00036292
      95         -3.048944        1.000000        0.00000000        0.00537699        0.01109171        0.00102055
      96         -3.048944        1.000000        0.00000000        0.00537699        0.01109173        0.00102055
      97         -3.048944        1.000000        0.00000000        0.00537701        0.01109146        0.00102059
      98         -3.048944        1.000000        0.00000000        0.00537700        0.01109164        0.00102056
      99         -3.048944        1.000000        0.00000000        0.00537700        0.01109163        0.00102056
     100         -3.048944        1.000000        0.00000000        0.00537701        0.01109148        0.00102059
     101         -3.048944        1.000000        0.00000000        0.00537702        0.01109137        0.00102060
     102         -3.048944        1.000000        0.00000000        0.00537701        0.01109148        0.00102059
     103         -3.048944        1.000000        0.00000000        0.00537695        0.01109205        0.00102050
     104         -3.048944        1.000000        0.00000000        0.00537698        0.01109178        0.00102054
     105         -3.048944        1.000000        0.00000000        0.00537697        0.01109190        0.00102052
     106         -3.048944        1.000000        0.00000000        0.00537696        0.01109202        0.00102050
     107         -3.048850        1.000000        0.00000000        0.00354610        0.02163849        0.00044172
     108         -3.048850        1.000000        0.00000000        0.00354610        0.02163849        0.00044172
     109         -3.048850        1.000000        0.00000000        0.00354610        0.02163849        0.00044172
     110         -3.048850        1.000000        0.00000000        0.00354610        0.02163849        0.00044172
     111         -3.048850        1.000000        0.00000000        0.00354610        0.02163849        0.00044172
     112         -3.048850        1.000000        0.00000000        0.00354610        0.02163848        0.00044172
     113         -3.048850        1.000000        0.00000000        0.00354610        0.02163848        0.00044172
     114         -3.048850        1.000000        0.00000000        0.00354610        0.02163849        0.00044172
     115         -3.048850        1.000000        0.00000000        0.00354610        0.02163849        0.00044172
     116         -3.048850        1.000000        0.00000000        0.00354610        0.02163849        0.00044172
     117         -3.048850        1.000000        0.00000000        0.00354610        0.02163849        0.00044172
     118         -3.048850        1.000000        0.00000000        0.00354610        0.02163849        0.00044172
     119         -3.048624        1.000000        0.00000000        0.00000000        0.04101328        0.00000000
     120         -3.048624        1.000000        0.00000000        0.00000000        0.04101328        0.00000000
     121         -3.048624        1.000000        0.00000000        0.00000000        0.04101323        0.00000001
     122         -3.048596        1.000000        0.00000000        0.00000002        0.04256666        0.00000708
     123         -3.048596        1.000000        0.00000000        0.00000004        0.04256652        0.00000710
     124         -3.048596        1.000000        0.00000000        0.00000011        0.04256567        0.00000724
     125         -3.048596        1.000000        0.00000000        0.00000001        0.04256684        0.00000705
     126         -3.048596        1.000000        0.00000000        0.00000005        0.04256640        0.00000712
     127         -3.048596        1.000000        0.00000000        0.00000004        0.04256641        0.00000712
     128         -3.048590        1.000000        0.00000000        0.00189582        0.02233265        0.00323214
     129         -3.048590        1.000000        0.00000000        0.00189584        0.02233234        0.00323218
     130         -3.048590        1.000000        0.00000000        0.00189584        0.02233238        0.00323218
     131         -3.048590        1.000000        0.00000000        0.00189582        0.02233260        0.00323215
     132         -3.048590        1.000000        0.00000000        0.00189573        0.02233354        0.00323199
     133         -3.048590        1.000000        0.00000000        0.00189584        0.02233242        0.00323217
     134         -3.048590        1.000000        0.00000000        0.00189582        0.02233261        0.00323214
     135         -3.048590        1.000000        0.00000000        0.00189580        0.02233278        0.00323211
     136         -3.048590        1.000000        0.00000000        0.00189585        0.02233228        0.00323219
     137         -3.048590        1.000000        0.00000000        0.00189582        0.02233251        0.00323215
     138         -3.048590        1.000000        0.00000000        0.00189584        0.02233229        0.00323219
     139         -3.048590        1.000000        0.00000000        0.00189585        0.02233229        0.00323219
     140         -3.048578        1.000000        0.00187323        0.00000001        0.01537621        0.00000001
     141         -3.048578        1.000000        0.00187323        0.00000001        0.01537622        0.00000001
     142         -3.048578        1.000000        0.00187322        0.00000003        0.01537613        0.00000006
     143         -3.048573        1.000000        0.00033477        0.00199198        0.01585360        0.00338474
     144         -3.048573        1.000000        0.00033662        0.00200302        0.01569464        0.00340349
     145         -3.048573        1.000000        0.00033844        0.00201386        0.01553840        0.00342192
     146         -3.048573        1.000000        0.00033568        0.00199744        0.01577493        0.00339402
     147         -3.048573        1.000000        0.00033559        0.00199688        0.01578299        0.00339307
     148         -3.048573        1.000000        0.00033914        0.00201794        0.01547950        0.00342885
     149         -3.048573        1.000000        0.00033785        0.00201032        0.01558936        0.00341591
     150         -3.048573        1.000000        0.00033937        0.00201937        0.01545903        0.00343127
     151         -3.048573        1.000000        0.00033936        0.00201930        0.01545999        0.00343116
     152         -3.048573        1.000000        0.00033720        0.00200647        0.01564487        0.00340936
     153         -3.048573        1.000000        0.00033804        0.00201143        0.01557334        0.00341778
     154         -3.048573        1.000000        0.00033913        0.00201796        0.01547929        0.00342888
     155         -3.048573        1.000000        0.00001214        0.00007227        0.04351327        0.00012280
     156         -3.048573        1.000000        0.00000746        0.00004441        0.04391465        0.00007546
     157         -3.048573        1.000000        0.00000191        0.00001135        0.04439094        0.00001928
     158         -3.048564        1.000000        0.00079876        0.00224453        0.00740516        0.00376637
     159         -3.048564        1.000000        0.00079877        0.00224449        0.00740535        0.00376630
     160         -3.048564        1.000000        0.00079877        0.00224449        0.00740535        0.00376630
     161         -3.048564        1.000000        0.00079877        0.00224449        0.00740532        0.00376630
     162         -3.048564        1.000000        0.00079877        0.00224451        0.00740525        0.00376633
     163         -3.048564        1.000000        0.00079877        0.00224448        0.00740534        0.00376630
     164         -3.048564        1.000000        0.00079877        0.00224449        0.00740532        0.00376630
     165         -3.048564        1.000000        0.00079877        0.00224450        0.00740529        0.00376632
     166         -3.048564        1.000000        0.00079873        0.00224458        0.00740509        0.00376645
     167         -3.048564        1.000000        0.00079874        0.00224453        0.00740543        0.00376637
     168         -3.048564        1.000000        0.00079873        0.00224459        0.00740502        0.00376647
     169         -3.048564        1.000000        0.00079876        0.00224452        0.00740522        0.00376636
     170         -3.048560        1.000000        0.00000001        0.00432997        0.00000011        0.00714705
     171         -3.048560        1.000000        0.00000001        0.00432996        0.00000014        0.00714704
     172         -3.048560        1.000000        0.00000001        0.00432998        0.00000007        0.00714707
     173         -3.048560        1.000000        0.00000005        0.00432986        0.00000052        0.00714687
     174         -3.048560        1.000000        0.00000001        0.00432997        0.00000009        0.00714706
     175         -3.048560        1.000000        0.00000007        0.00432980        0.00000074        0.00714678
     176         -3.048318        1.000000        0.00000000        0.00243582        0.01147347        0.00429150
     177         -3.048318        1.000000        0.00000000        0.00243582        0.01147346        0.00429150
     178         -3.048318        1.000000        0.00000000        0.00243582        0.01147344        0.00429150
     179         -3.048318        1.000000        0.00000000        0.00243581        0.01147349        0.00429151
     180         -3.048318        1.000000        0.00000000        0.00243580        0.01147354        0.00429152
     181         -3.048318        1.000000        0.00000000        0.00243580        0.01147354        0.00429152
     182         -3.048318        1.000000        0.00000000        0.00243582        0.01147346        0.00429150
     183         -3.048318        1.000000        0.00000000        0.00243581        0.01147351        0.00429151
     184         -3.048318        1.000000        0.00000000        0.00243581        0.01147348        0.00429150
     185         -3.048318        1.000000        0.00000000        0.00243581        0.01147350        0.00429151
     186         -3.048318        1.000000        0.00000000        0.00243582        0.01147345        0.00429150
     187         -3.048318        1.000000        0.00000000        0.00243582        0.01147344        0.00429149
     188         -3.048304        1.000000        0.00000000        0.00109792        0.01858392        0.00560084
     189         -3.048304        1.000000        0.00000000        0.00109792        0.01858396        0.00560084
     190         -3.048304        1.000000        0.00000000        0.00109818        0.01858243        0.00560054
     191         -3.048304        1.000000        0.00000000        0.00109807        0.01858308        0.00560067
     192         -3.048304        1.000000        0.00000000        0.00109816        0.01858259        0.00560057
     193         -3.048304        1.000000        0.00000000        0.00109821        0.01858230        0.00560051
     194         -3.048304        1.000000        0.00000000        0.00109822        0.01858225        0.00560050
     195         -3.048304        1.000000        0.00000000        0.00109825        0.01858208        0.00560046
     196         -3.048304        1.000000        0.00000000        0.00109817        0.01858248        0.00560055
     197         -3.048304        1.000000        0.00000000        0.00109827        0.01858194        0.00560044
     198         -3.048304        1.000000        0.00000000        0.00109830        0.01858175        0.00560040
     199         -3.048304        1.000000        0.00000000        0.00109826        0.01858200        0.00560045
     200         -3.048304        1.000000        0.00000000        0.00109818        0.01858245        0.00560054
     201         -3.048304        1.000000        0.00000000        0.00109823        0.01858218        0.00560048
     202         -3.048304        1.000000        0.00000000        0.00109829        0.01858184        0.00560042
     203         -3.048304        1.000000        0.00000000        0.00109829        0.01858182        0.00560041
     204         -3.048300        1.000000        0.00000000        0.00000002        0.02480378        0.00685000
     205         -3.048300        1.000000        0.00000000        0.00000003        0.02480373        0.00684999
     206         -3.048300        1.000000        0.00000000        0.00000009        0.02480342        0.00684993
     207         -3.048300        1.000000        0.00000000        0.00000045        0.02480136        0.00684951
     208         -3.048300        1.000000        0.00000000        0.00000034        0.02480197        0.00684964
     209         -3.048300        1.000000        0.00000000        0.00000006        0.02480354        0.00684995
     210         -3.048300        1.000000        0.00000000        0.00000042        0.02480151        0.00684955
     211         -3.048300        1.000000        0.00000000        0.00000027        0.02480236        0.00684972
     212         -3.048300        1.000000        0.00000000        0.00000014        0.02480310        0.00684986
     213         -3.048300        1.000000        0.00000000        0.00000019        0.02480280        0.00684980
     214         -3.048300        1.000000        0.00000000        0.00000010        0.02480333        0.00684991
     215         -3.048300        1.000000        0.00000000        0.00000013        0.02480318        0.00684988
     216         -3.048277        1.000000        0.00031520        0.00134058        0.01964249        0.00028983
     217         -3.048277        1.000000        0.00031520        0.00134058        0.01964250        0.00028983
     218         -3.048277        1.000000        0.00031522        0.00134055        0.01964252        0.00028982
     219         -3.048277        1.000000        0.00031522        0.00134054        0.01964254        0.00028981
     220         -3.048277        1.000000        0.00031523        0.00134053        0.01964255        0.00028981
     221         -3.048277        1.000000        0.00031521        0.00134057        0.01964250        0.00028982
     222         -3.048178        1.000000        0.00000000        0.00027871        0.01323636        0.01122168
     223         -3.048178        1.000000        0.00000000        0.00027871        0.01323631        0.01122169
     224         -3.048178        1.000000        0.00000000        0.00027868        0.01323660        0.01122164
     225         -3.048178        1.000000        0.00000000        0.00027871        0.01323640        0.01122167
     226         -3.048178        1.000000        0.00000000        0.00027870        0.01323646        0.01122166
     227         -3.048178        1.000000        0.00000000        0.00027869        0.01323655        0.01122164
     228         -3.048178        1.000000        0.00000000        0.00027867        0.01323672        0.01122162
     229         -3.048178        1.000000        0.00000000        0.00027869        0.01323657        0.01122165
     230         -3.048178        1.000000        0.00000000        0.00027874        0.01323601        0.01122173
     231         -3.048178        1.000000        0.00000000        0.00027872        0.01323627        0.01122169
     232         -3.048178        1.000000        0.00000000        0.00027872        0.01323622        0.01122170
     233         -3.048178        1.000000        0.00000000        0.00027874        0.01323601        0.01122173
     234         -3.048153        1.000000        0.00012023        0.00004948        0.01625001        0.00801527
     235         -3.048153        1.000000        0.00012023        0.00004948        0.01625001        0.00801527
     236         -3.048153        1.000000        0.00012023        0.00004948        0.01625001        0.00801527
     237         -3.048153        1.000000        0.00012023        0.00004948        0.01625001        0.00801527
     238         -3.048153        1.000000        0.00012023        0.00004949        0.01625003        0.00801526
     239         -3.048153        1.000000        0.00012023        0.00004949        0.01625003        0.00801526
     240         -3.048153        1.000000        0.00012023        0.00004948        0.01625000        0.00801527
     241         -3.048153        1.000000        0.00012023        0.00004949        0.01625002        0.00801527
     242         -3.048153        1.000000        0.00012023        0.00004948        0.01624995        0.00801528
     243         -3.048153        1.000000        0.00012024        0.00004948        0.01624995        0.00801527
     244         -3.048153        1.000000        0.00012022        0.00004949        0.01625009        0.00801526
     245         -3.048153        1.000000        0.00012022        0.00004949        0.01625014        0.00801525
     246         -3.048086        1.000000        0.00000000        0.00000000        0.02507954        0.00000000
     247         -3.048086        1.000000        0.00000000        0.00000000        0.02507953        0.00000001
     248         -3.048050        1.000000        0.00000000        0.00000000        0.01221298        0.00891902
     249         -3.048050        1.000000        0.00000000        0.00000000        0.01221298        0.00891902
     250         -3.048050        1.000000        0.00000000        0.00000000        0.01221298        0.00891902
     251         -3.048050        1.000000        0.00000000        0.00000000        0.01221299        0.00891902
     252         -3.048050        1.000000        0.00000000        0.00000000        0.01221298        0.00891902
     253         -3.048050        1.000000        0.00000000        0.00000000        0.01221298        0.00891902
     254         -3.048020        1.000000        0.00000000        0.00000000        0.00000000        0.01739144
     255         -3.048020        1.000000        0.00000000        0.00000000        0.00000001        0.01739144
     256         -3.048020        1.000000        0.00000000        0.00000000        0.00000001        0.01739144
     257         -1.714411        1.000000        0.00000000        0.98941284        0.00000000        0.00002010
     258         -1.714411        1.000000        0.00000000        0.98941283        0.00000000        0.00002010
     259         -1.714411        1.000000        0.00000000        0.98941284        0.00000000        0.00002010