 DBCSR| CPU Multiplication driver                                           XSMM (U)
 DBCSR| Multrec recursion limit                                              512 (U)
 DBCSR| Multiplication stack size                                           1000 (D)
 DBCSR| Maximum elements for images                                    UNLIMITED (U)
 DBCSR| Multiplicative factor virtual images                                   1 (U)
 DBCSR| Use multiplication densification                                       T (D)
 DBCSR| Multiplication size stacks                                             3 (U)
 DBCSR| Use memory pool for CPU allocation                                     F (U)
 DBCSR| Number of 3D layers                                               SINGLE (U)
 DBCSR| Use MPI memory allocation                                              F (U)
 DBCSR| Use RMA algorithm                                                      F (U)
 DBCSR| Use Communication thread                                               T (U)
 DBCSR| Communication thread load                                             87 (D)
 DBCSR| MPI: My process id                                                     0
 DBCSR| MPI: Number of processes                                             128
 DBCSR| OMP: Current number of threads                                         1
 DBCSR| OMP: Max number of threads                                             1
 DBCSR| Split modifier for TAS multiplication algorithm                  1.0E+00 (U)


  **** **** ******  **  PROGRAM STARTED AT               2023-02-14 14:40:42.996
 ***** ** ***  *** **   PROGRAM STARTED ON                             nid001452
 **    ****   ******    PROGRAM STARTED BY                                cahart
 ***** **    ** ** **   PROGRAM PROCESS ID                                171564
  **** **  *******  **  PROGRAM STARTED IN /mnt/lustre/a2fs-work2/work/e05/e05/c
                                           ahart/postdoc/masters/ni/archer2/slab
                                           /optimise/alpha-beta/scf_5e-4_mos-100
                                           0_temp-2000_spin-0.7-0.5_periodic-xyz
                                           /search/4.0E-01_1.5

 CP2K| version string:                 CP2K version 2023.1 (Development Version)
 CP2K| source code revision number:                                  git:964cd58
 CP2K| cp2kflags: omp libint fftw3 libxc elpa parallel scalapack xsmm plumed2 mk
 CP2K|            l
 CP2K| is freely available from                            https://www.cp2k.org/
 CP2K| Program compiled at                          Mon 13 Feb 17:05:14 GMT 2023
 CP2K| Program compiled on                                                  ln01
 CP2K| Program compiled for                                              ARCHER2
 CP2K| Data directory path    /work/e05/e05/cahart/cp2k/cp2k-2023.1/cp2k-2023.1-
 CP2K| Input file name                                                  cp2k.inp

 GLOBAL| Force Environment number                                              1
 GLOBAL| Basis set file name                                        BASIS_MOLOPT
 GLOBAL| Potential file name                                      GTH_POTENTIALS
 GLOBAL| MM Potential file name                                     MM_POTENTIAL
 GLOBAL| Coordinate file name                                      __STD_INPUT__
 GLOBAL| Method name                                                        CP2K
 GLOBAL| Project name                                                    Ni_bulk
 GLOBAL| Run type                                                         ENERGY
 GLOBAL| FFT library                                                       FFTW3
 GLOBAL| Diagonalization library                                            ELPA
 GLOBAL| DGEMM library                                                      BLAS
 GLOBAL| Minimum number of eigenvectors for ELPA usage                        16
 GLOBAL| Orthonormality check for eigenvectors                          DISABLED
 GLOBAL| Matrix multiplication library                                 ScaLAPACK
 GLOBAL| All-to-all communication in single precision                          F
 GLOBAL| FFTs using library dependent lengths                                  F
 GLOBAL| Grid backend                                                       AUTO
 GLOBAL| Global print level                                               MEDIUM
 GLOBAL| MPI I/O enabled                                                       T
 GLOBAL| Total number of message passing processes                           128
 GLOBAL| Number of threads for this process                                    1
 GLOBAL| This output is from process                                           0
 GLOBAL| Stack size for threads created by OpenMP (OMP_STACKSIZE)        default
 GLOBAL| CPU model name                          AMD EPYC 7742 64-Core Processor
 GLOBAL| CPUID                                                              1002

 MEMORY| system memory details [Kb]
 MEMORY|                        rank 0           min           max       average
 MEMORY| MemTotal            263527824     263527824     263527824     263527824
 MEMORY| MemFree             238538800     238538800     238538800     238538800
 MEMORY| Buffers                 33720         33720         33720         33720
 MEMORY| Cached                 771912        771912        771912        771912
 MEMORY| Slab                  1635896       1635896       1635896       1635896
 MEMORY| SReclaimable           130584        130584        130584        130584
 MEMORY| MemLikelyFree       239475016     239475016     239475016     239475016


 *** Fundamental physical constants (SI units) ***

 *** Literature: B. J. Mohr and B. N. Taylor,
 ***             CODATA recommended values of the fundamental physical
 ***             constants: 2006, Web Version 5.1
 ***             http://physics.nist.gov/constants

 Speed of light in vacuum [m/s]                             2.99792458000000E+08
 Magnetic constant or permeability of vacuum [N/A**2]       1.25663706143592E-06
 Electric constant or permittivity of vacuum [F/m]          8.85418781762039E-12
 Planck constant (h) [J*s]                                  6.62606896000000E-34
 Planck constant (h-bar) [J*s]                              1.05457162825177E-34
 Elementary charge [C]                                      1.60217648700000E-19
 Electron mass [kg]                                         9.10938215000000E-31
 Electron g factor [ ]                                     -2.00231930436220E+00
 Proton mass [kg]                                           1.67262163700000E-27
 Fine-structure constant                                    7.29735253760000E-03
 Rydberg constant [1/m]                                     1.09737315685270E+07
 Avogadro constant [1/mol]                                  6.02214179000000E+23
 Boltzmann constant [J/K]                                   1.38065040000000E-23
 Atomic mass unit [kg]                                      1.66053878200000E-27
 Bohr radius [m]                                            5.29177208590000E-11

 *** Conversion factors ***

 [u] -> [a.u.]                                              1.82288848426455E+03
 [Angstrom] -> [Bohr] = [a.u.]                              1.88972613288564E+00
 [a.u.] = [Bohr] -> [Angstrom]                              5.29177208590000E-01
 [a.u.] -> [s]                                              2.41888432650478E-17
 [a.u.] -> [fs]                                             2.41888432650478E-02
 [a.u.] -> [J]                                              4.35974393937059E-18
 [a.u.] -> [N]                                              8.23872205491840E-08
 [a.u.] -> [K]                                              3.15774647902944E+05
 [a.u.] -> [kJ/mol]                                         2.62549961709828E+03
 [a.u.] -> [kcal/mol]                                       6.27509468713739E+02
 [a.u.] -> [Pa]                                             2.94210107994716E+13
 [a.u.] -> [bar]                                            2.94210107994716E+08
 [a.u.] -> [atm]                                            2.90362800883016E+08
 [a.u.] -> [eV]                                             2.72113838565563E+01
 [a.u.] -> [Hz]                                             6.57968392072181E+15
 [a.u.] -> [1/cm] (wave numbers)                            2.19474631370540E+05
 [a.u./Bohr**2] -> [1/cm]                                   5.14048714338585E+03
 

 CELL_TOP| Volume [angstrom^3]:                                       983.249569
 CELL_TOP| Vector a [angstrom     7.012     0.000     0.000   |a| =     7.011596
 CELL_TOP| Vector b [angstrom     0.000     7.012     0.000   |b| =     7.011596
 CELL_TOP| Vector c [angstrom     0.000     0.000    20.000   |c| =    20.000000
 CELL_TOP| Angle (b,c), alpha [degree]:                                90.000000
 CELL_TOP| Angle (a,c), beta  [degree]:                                90.000000
 CELL_TOP| Angle (a,b), gamma [degree]:                                90.000000
 CELL_TOP| Numerically orthorhombic:                                         YES
 CELL_TOP| Periodicity                                                       XYZ

 GENERATE|  Preliminary Number of Bonds generated:                             0
 GENERATE|  Achieved consistency in connectivity generation.

 CELL| Volume [angstrom^3]:                                           983.249569
 CELL| Vector a [angstrom]:       7.012     0.000     0.000   |a| =     7.011596
 CELL| Vector b [angstrom]:       0.000     7.012     0.000   |b| =     7.011596
 CELL| Vector c [angstrom]:       0.000     0.000    20.000   |c| =    20.000000
 CELL| Angle (b,c), alpha [degree]:                                    90.000000
 CELL| Angle (a,c), beta  [degree]:                                    90.000000
 CELL| Angle (a,b), gamma [degree]:                                    90.000000
 CELL| Numerically orthorhombic:                                             YES
 CELL| Periodicity                                                           XYZ

 CELL_REF| Volume [angstrom^3]:                                       983.249569
 CELL_REF| Vector a [angstrom     7.012     0.000     0.000   |a| =     7.011596
 CELL_REF| Vector b [angstrom     0.000     7.012     0.000   |b| =     7.011596
 CELL_REF| Vector c [angstrom     0.000     0.000    20.000   |c| =    20.000000
 CELL_REF| Angle (b,c), alpha [degree]:                                90.000000
 CELL_REF| Angle (a,c), beta  [degree]:                                90.000000
 CELL_REF| Angle (a,b), gamma [degree]:                                90.000000
 CELL_REF| Numerically orthorhombic:                                         YES
 CELL_REF| Periodicity                                                       XYZ

 *** WARNING in cryssym.F:165 :: Symmetry library SPGLIB not available ***


 *******************************************************************************
                                    Kpoints
 *******************************************************************************
 BRILLOUIN| K-point scheme                                        Monkhorst-Pack
 BRILLOUIN| K-Point grid                                             4    4    1
 BRILLOUIN| Accuracy in Symmetry determination                      0.100000E-05
 BRILLOUIN| K-Point point group symmetrization                               OFF
 BRILLOUIN| Wavefunction type                                            COMPLEX
 BRILLOUIN| List of Kpoints [2 Pi/Bohr]                                        8
 BRILLOUIN| Number           Weight            X              Y              Z
 BRILLOUIN|     1           0.12500       -0.37500       -0.37500        0.00000
 BRILLOUIN|     2           0.12500       -0.37500       -0.12500        0.00000
 BRILLOUIN|     3           0.12500       -0.37500        0.12500        0.00000
 BRILLOUIN|     4           0.12500       -0.37500        0.37500        0.00000
 BRILLOUIN|     5           0.12500       -0.12500       -0.37500        0.00000
 BRILLOUIN|     6           0.12500       -0.12500       -0.12500        0.00000
 BRILLOUIN|     7           0.12500       -0.12500        0.12500        0.00000
 BRILLOUIN|     8           0.12500       -0.12500        0.37500        0.00000
 *******************************************************************************

 *******************************************************************************
 *******************************************************************************
 **                                                                           **
 **     #####                         ##              ##                      **
 **    ##   ##            ##          ##              ##                      **
 **   ##     ##                       ##            ######                    **
 **   ##     ##  ##   ##  ##   #####  ##  ##   ####   ##    #####    #####    **
 **   ##     ##  ##   ##  ##  ##      ## ##   ##      ##   ##   ##  ##   ##   **
 **   ##  ## ##  ##   ##  ##  ##      ####     ###    ##   ######   ######    **
 **    ##  ###   ##   ##  ##  ##      ## ##      ##   ##   ##       ##        **
 **     #######   #####   ##   #####  ##  ##  ####    ##    #####   ##        **
 **           ##                                                    ##        **
 **                                                                           **
 **                                                ... make the atoms dance   **
 **                                                                           **
 **            Copyright (C) by CP2K developers group (2000-2023)             **
 **                      J. Chem. Phys. 152, 194103 (2020)                    **
 **                                                                           **
 *******************************************************************************

 *** WARNING in qs_environment.F:1456 :: Number of electrons will be ***
 *** overwritten by NELEC_ALPHA and NELEC_BETA, multiplicity will be ***
 *** ignored.                                                        ***

 Number of electrons should be                                               576
 Sum of NELEC_ALPHA and NELEC_BETA is                                    576.000

 *** WARNING in qs_environment.F:1488 :: NELEC_ALPHA is not an integer, ***
 *** many features will not be supported.                               ***


 *** WARNING in qs_environment.F:1500 :: NELEC_BETA is not an integer, ***
 *** many features will not be supported.                              ***


 *** WARNING in qs_environment.F:1532 :: More ADDED_MOs requested for beta ***
 *** spin than available.                                                  ***


 *** WARNING in qs_environment.F:1548 :: More added MOs requested than     ***
 *** available. The full set of unoccupied MOs will be used. Use           ***
 *** 'ADDED_MOS -1' to always use all available MOs and to get rid of this ***
 *** warning.                                                              ***


 DFT| Spin unrestricted (spin-polarized) Kohn-Sham calculation               UKS
 DFT| Multiplicity                                                             1
 DFT| Number of spin states                                                    2
 DFT| Charge                                                                   0
 DFT| Self-interaction correction (SIC)                                       NO
 DFT| Cutoffs: density                                              1.000000E-10
 DFT|          gradient                                             1.000000E-10
 DFT|          tau                                                  1.000000E-10
 DFT|          cutoff_smoothing_range                               0.000000E+00
 DFT| XC density smoothing                                                  NONE
 DFT| XC derivatives                                                          PW

 FUNCTIONAL| PBE:
 FUNCTIONAL| J.P.Perdew, K.Burke, M.Ernzerhof, Phys. Rev. Letter, vol. 77, n 18,
 FUNCTIONAL|  pp. 3865-3868, (1996){spin polarized}                             

 vdW POTENTIAL|                                                   Pair Potential
 vdW POTENTIAL|          DFT-D3 (Version 3.1)
 vdW POTENTIAL|          Potential Form: S. Grimme et al, JCP 132: 154104 (2010)
 vdW POTENTIAL|          Zero Damping
 vdW POTENTIAL|          Cutoff Radius [Bohr]:                             20.00
 vdW POTENTIAL|          s6 Scaling Factor:                               1.0000
 vdW POTENTIAL|          sr6 Scaling Factor:                              1.2170
 vdW POTENTIAL|          s8 Scaling Factor:                               0.7220
 vdW POTENTIAL|          Cutoff for CN calculation:                   0.1000E-05

 QS| Method:                                                                 GPW
 QS| Density plane wave grid type                        NON-SPHERICAL FULLSPACE
 QS| Number of grid levels:                                                    5
 QS| Density cutoff [a.u.]:                                                300.0
 QS| Multi grid cutoff [a.u.]: 1) grid level                               300.0
 QS|                           2) grid level                               100.0
 QS|                           3) grid level                                33.3
 QS|                           4) grid level                                11.1
 QS|                           5) grid level                                 3.7
 QS| Grid level progression factor:                                          3.0
 QS| Relative density cutoff [a.u.]:                                        30.0
 QS| Interaction thresholds: eps_pgf_orb:                                1.0E-06
 QS|                         eps_filter_matrix:                          0.0E+00
 QS|                         eps_core_charge:                            1.0E-14
 QS|                         eps_rho_gspace:                             1.0E-12
 QS|                         eps_rho_rspace:                             1.0E-12
 QS|                         eps_gvg_rspace:                             1.0E-06
 QS|                         eps_ppl:                                    1.0E-02
 QS|                         eps_ppnl:                                   1.0E-08


 ATOMIC KIND INFORMATION

  1. Atomic kind: Ni_i                                  Number of atoms:      16

     Orbital Basis Set                                        DZVP-MOLOPT-SR-GTH

       Number of orbital shell sets:                                           1
       Number of orbital shells:                                               8
       Number of primitive Cartesian functions:                                6
       Number of Cartesian basis functions:                                   31
       Number of spherical basis functions:                                   26
       Norm type:                                                              2

       Normalised Cartesian orbitals:

                        Set   Shell   Orbital            Exponent    Coefficient

                          1       1    2s               10.077428      -0.684558
                                                         5.847736      -0.844524
                                                         2.494033       1.088856
                                                         0.988355       0.395503
                                                         0.344978       0.010224
                                                         0.099466      -0.003250

                          1       2    3s               10.077428       0.096747
                                                         5.847736       0.162504
                                                         2.494033      -0.297192
                                                         0.988355      -0.319752
                                                         0.344978       0.088318
                                                         0.099466       0.118587

                          1       3    4s               10.077428       0.036437
                                                         5.847736      -0.381480
                                                         2.494033       0.003759
                                                         0.988355      -1.048256
                                                         0.344978       0.855825
                                                         0.099466      -0.176350

                          1       4    3px              10.077428      -3.133913
                                                         5.847736       3.027656
                                                         2.494033       2.353227
                                                         0.988355       0.554184
                                                         0.344978       0.019462
                                                         0.099466      -0.000291
                          1       4    3py              10.077428      -3.133913
                                                         5.847736       3.027656
                                                         2.494033       2.353227
                                                         0.988355       0.554184
                                                         0.344978       0.019462
                                                         0.099466      -0.000291
                          1       4    3pz              10.077428      -3.133913
                                                         5.847736       3.027656
                                                         2.494033       2.353227
                                                         0.988355       0.554184
                                                         0.344978       0.019462
                                                         0.099466      -0.000291

                          1       5    4px              10.077428      -0.112729
                                                         5.847736      -0.114008
                                                         2.494033      -0.347303
                                                         0.988355      -0.110323
                                                         0.344978       0.154096
                                                         0.099466       0.058386
                          1       5    4py              10.077428      -0.112729
                                                         5.847736      -0.114008
                                                         2.494033      -0.347303
                                                         0.988355      -0.110323
                                                         0.344978       0.154096
                                                         0.099466       0.058386
                          1       5    4pz              10.077428      -0.112729
                                                         5.847736      -0.114008
                                                         2.494033      -0.347303
                                                         0.988355      -0.110323
                                                         0.344978       0.154096
                                                         0.099466       0.058386

                          1       6    4dx2             10.077428       8.232726
                                                         5.847736       9.105758
                                                         2.494033       2.849835
                                                         0.988355       0.554319
                                                         0.344978       0.067245
                                                         0.099466       0.001940
                          1       6    4dxy             10.077428      14.259500
                                                         5.847736      15.771636
                                                         2.494033       4.936060
                                                         0.988355       0.960109
                                                         0.344978       0.116472
                                                         0.099466       0.003360
                          1       6    4dxz             10.077428      14.259500
                                                         5.847736      15.771636
                                                         2.494033       4.936060
                                                         0.988355       0.960109
                                                         0.344978       0.116472
                                                         0.099466       0.003360
                          1       6    4dy2             10.077428       8.232726
                                                         5.847736       9.105758
                                                         2.494033       2.849835
                                                         0.988355       0.554319
                                                         0.344978       0.067245
                                                         0.099466       0.001940
                          1       6    4dyz             10.077428      14.259500
                                                         5.847736      15.771636
                                                         2.494033       4.936060
                                                         0.988355       0.960109
                                                         0.344978       0.116472
                                                         0.099466       0.003360
                          1       6    4dz2             10.077428       8.232726
                                                         5.847736       9.105758
                                                         2.494033       2.849835
                                                         0.988355       0.554319
                                                         0.344978       0.067245
                                                         0.099466       0.001940

                          1       7    5dx2             10.077428      -2.715373
                                                         5.847736      -4.020640
                                                         2.494033      -1.397569
                                                         0.988355      -0.076143
                                                         0.344978       0.033435
                                                         0.099466       0.026032
                          1       7    5dxy             10.077428      -4.703164
                                                         5.847736      -6.963952
                                                         2.494033      -2.420661
                                                         0.988355      -0.131883
                                                         0.344978       0.057911
                                                         0.099466       0.045088
                          1       7    5dxz             10.077428      -4.703164
                                                         5.847736      -6.963952
                                                         2.494033      -2.420661
                                                         0.988355      -0.131883
                                                         0.344978       0.057911
                                                         0.099466       0.045088
                          1       7    5dy2             10.077428      -2.715373
                                                         5.847736      -4.020640
                                                         2.494033      -1.397569
                                                         0.988355      -0.076143
                                                         0.344978       0.033435
                                                         0.099466       0.026032
                          1       7    5dyz             10.077428      -4.703164
                                                         5.847736      -6.963952
                                                         2.494033      -2.420661
                                                         0.988355      -0.131883
                                                         0.344978       0.057911
                                                         0.099466       0.045088
                          1       7    5dz2             10.077428      -2.715373
                                                         5.847736      -4.020640
                                                         2.494033      -1.397569
                                                         0.988355      -0.076143
                                                         0.344978       0.033435
                                                         0.099466       0.026032

                          1       8    5fx3             10.077428      -0.467694
                                                         5.847736       0.618100
                                                         2.494033       0.066069
                                                         0.988355       0.262898
                                                         0.344978       0.004720
                                                         0.099466       0.007748
                          1       8    5fx2y            10.077428      -1.045795
                                                         5.847736       1.382114
                                                         2.494033       0.147734
                                                         0.988355       0.587859
                                                         0.344978       0.010555
                                                         0.099466       0.017325
                          1       8    5fx2z            10.077428      -1.045795
                                                         5.847736       1.382114
                                                         2.494033       0.147734
                                                         0.988355       0.587859
                                                         0.344978       0.010555
                                                         0.099466       0.017325
                          1       8    5fxy2            10.077428      -1.045795
                                                         5.847736       1.382114
                                                         2.494033       0.147734
                                                         0.988355       0.587859
                                                         0.344978       0.010555
                                                         0.099466       0.017325
                          1       8    5fxyz            10.077428      -1.811371
                                                         5.847736       2.393892
                                                         2.494033       0.255883
                                                         0.988355       1.018201
                                                         0.344978       0.018282
                                                         0.099466       0.030008
                          1       8    5fxz2            10.077428      -1.045795
                                                         5.847736       1.382114
                                                         2.494033       0.147734
                                                         0.988355       0.587859
                                                         0.344978       0.010555
                                                         0.099466       0.017325
                          1       8    5fy3             10.077428      -0.467694
                                                         5.847736       0.618100
                                                         2.494033       0.066069
                                                         0.988355       0.262898
                                                         0.344978       0.004720
                                                         0.099466       0.007748
                          1       8    5fy2z            10.077428      -1.045795
                                                         5.847736       1.382114
                                                         2.494033       0.147734
                                                         0.988355       0.587859
                                                         0.344978       0.010555
                                                         0.099466       0.017325
                          1       8    5fyz2            10.077428      -1.045795
                                                         5.847736       1.382114
                                                         2.494033       0.147734
                                                         0.988355       0.587859
                                                         0.344978       0.010555
                                                         0.099466       0.017325
                          1       8    5fz3             10.077428      -0.467694
                                                         5.847736       0.618100
                                                         2.494033       0.066069
                                                         0.988355       0.262898
                                                         0.344978       0.004720
                                                         0.099466       0.007748

       Atomic covalent radius [Angstrom]:                                  1.150

       Atomic van der Waals radius [Angstrom]:                             1.630

     GTH Potential information for                                   GTH-PBE-q18

       Description:                       Goedecker-Teter-Hutter pseudopotential
                                           Goedecker et al., PRB 54, 1703 (1996)
                                          Hartwigsen et al., PRB 58, 3641 (1998)
                                                      Krack, TCA 114, 145 (2005)

       Gaussian exponent of the core charge distribution:               4.081633
       Electronic configuration (s p d ...):                           4   6   8

       Parameters of the local part of the GTH pseudopotential:

                          rloc        C1          C2          C3          C4
                        0.350000    2.102166    0.648484

       Parameters of the non-local part of the GTH pseudopotential:

                   l      r(l)      h(i,j,l)

                   0    0.261295    0.622658    9.970227
                                    9.970227  -12.871507
                   1    0.224253  -11.142708   12.429566
                                   12.429566  -14.706861
                   2    0.215348  -12.628146

  2. Atomic kind: Ni_b                                  Number of atoms:      16

     Orbital Basis Set                                        DZVP-MOLOPT-SR-GTH

       Number of orbital shell sets:                                           1
       Number of orbital shells:                                               8
       Number of primitive Cartesian functions:                                6
       Number of Cartesian basis functions:                                   31
       Number of spherical basis functions:                                   26
       Norm type:                                                              2

       Normalised Cartesian orbitals:

                        Set   Shell   Orbital            Exponent    Coefficient

                          1       1    2s               10.077428      -0.684558
                                                         5.847736      -0.844524
                                                         2.494033       1.088856
                                                         0.988355       0.395503
                                                         0.344978       0.010224
                                                         0.099466      -0.003250

                          1       2    3s               10.077428       0.096747
                                                         5.847736       0.162504
                                                         2.494033      -0.297192
                                                         0.988355      -0.319752
                                                         0.344978       0.088318
                                                         0.099466       0.118587

                          1       3    4s               10.077428       0.036437
                                                         5.847736      -0.381480
                                                         2.494033       0.003759
                                                         0.988355      -1.048256
                                                         0.344978       0.855825
                                                         0.099466      -0.176350

                          1       4    3px              10.077428      -3.133913
                                                         5.847736       3.027656
                                                         2.494033       2.353227
                                                         0.988355       0.554184
                                                         0.344978       0.019462
                                                         0.099466      -0.000291
                          1       4    3py              10.077428      -3.133913
                                                         5.847736       3.027656
                                                         2.494033       2.353227
                                                         0.988355       0.554184
                                                         0.344978       0.019462
                                                         0.099466      -0.000291
                          1       4    3pz              10.077428      -3.133913
                                                         5.847736       3.027656
                                                         2.494033       2.353227
                                                         0.988355       0.554184
                                                         0.344978       0.019462
                                                         0.099466      -0.000291

                          1       5    4px              10.077428      -0.112729
                                                         5.847736      -0.114008
                                                         2.494033      -0.347303
                                                         0.988355      -0.110323
                                                         0.344978       0.154096
                                                         0.099466       0.058386
                          1       5    4py              10.077428      -0.112729
                                                         5.847736      -0.114008
                                                         2.494033      -0.347303
                                                         0.988355      -0.110323
                                                         0.344978       0.154096
                                                         0.099466       0.058386
                          1       5    4pz              10.077428      -0.112729
                                                         5.847736      -0.114008
                                                         2.494033      -0.347303
                                                         0.988355      -0.110323
                                                         0.344978       0.154096
                                                         0.099466       0.058386

                          1       6    4dx2             10.077428       8.232726
                                                         5.847736       9.105758
                                                         2.494033       2.849835
                                                         0.988355       0.554319
                                                         0.344978       0.067245
                                                         0.099466       0.001940
                          1       6    4dxy             10.077428      14.259500
                                                         5.847736      15.771636
                                                         2.494033       4.936060
                                                         0.988355       0.960109
                                                         0.344978       0.116472
                                                         0.099466       0.003360
                          1       6    4dxz             10.077428      14.259500
                                                         5.847736      15.771636
                                                         2.494033       4.936060
                                                         0.988355       0.960109
                                                         0.344978       0.116472
                                                         0.099466       0.003360
                          1       6    4dy2             10.077428       8.232726
                                                         5.847736       9.105758
                                                         2.494033       2.849835
                                                         0.988355       0.554319
                                                         0.344978       0.067245
                                                         0.099466       0.001940
                          1       6    4dyz             10.077428      14.259500
                                                         5.847736      15.771636
                                                         2.494033       4.936060
                                                         0.988355       0.960109
                                                         0.344978       0.116472
                                                         0.099466       0.003360
                          1       6    4dz2             10.077428       8.232726
                                                         5.847736       9.105758
                                                         2.494033       2.849835
                                                         0.988355       0.554319
                                                         0.344978       0.067245
                                                         0.099466       0.001940

                          1       7    5dx2             10.077428      -2.715373
                                                         5.847736      -4.020640
                                                         2.494033      -1.397569
                                                         0.988355      -0.076143
                                                         0.344978       0.033435
                                                         0.099466       0.026032
                          1       7    5dxy             10.077428      -4.703164
                                                         5.847736      -6.963952
                                                         2.494033      -2.420661
                                                         0.988355      -0.131883
                                                         0.344978       0.057911
                                                         0.099466       0.045088
                          1       7    5dxz             10.077428      -4.703164
                                                         5.847736      -6.963952
                                                         2.494033      -2.420661
                                                         0.988355      -0.131883
                                                         0.344978       0.057911
                                                         0.099466       0.045088
                          1       7    5dy2             10.077428      -2.715373
                                                         5.847736      -4.020640
                                                         2.494033      -1.397569
                                                         0.988355      -0.076143
                                                         0.344978       0.033435
                                                         0.099466       0.026032
                          1       7    5dyz             10.077428      -4.703164
                                                         5.847736      -6.963952
                                                         2.494033      -2.420661
                                                         0.988355      -0.131883
                                                         0.344978       0.057911
                                                         0.099466       0.045088
                          1       7    5dz2             10.077428      -2.715373
                                                         5.847736      -4.020640
                                                         2.494033      -1.397569
                                                         0.988355      -0.076143
                                                         0.344978       0.033435
                                                         0.099466       0.026032

                          1       8    5fx3             10.077428      -0.467694
                                                         5.847736       0.618100
                                                         2.494033       0.066069
                                                         0.988355       0.262898
                                                         0.344978       0.004720
                                                         0.099466       0.007748
                          1       8    5fx2y            10.077428      -1.045795
                                                         5.847736       1.382114
                                                         2.494033       0.147734
                                                         0.988355       0.587859
                                                         0.344978       0.010555
                                                         0.099466       0.017325
                          1       8    5fx2z            10.077428      -1.045795
                                                         5.847736       1.382114
                                                         2.494033       0.147734
                                                         0.988355       0.587859
                                                         0.344978       0.010555
                                                         0.099466       0.017325
                          1       8    5fxy2            10.077428      -1.045795
                                                         5.847736       1.382114
                                                         2.494033       0.147734
                                                         0.988355       0.587859
                                                         0.344978       0.010555
                                                         0.099466       0.017325
                          1       8    5fxyz            10.077428      -1.811371
                                                         5.847736       2.393892
                                                         2.494033       0.255883
                                                         0.988355       1.018201
                                                         0.344978       0.018282
                                                         0.099466       0.030008
                          1       8    5fxz2            10.077428      -1.045795
                                                         5.847736       1.382114
                                                         2.494033       0.147734
                                                         0.988355       0.587859
                                                         0.344978       0.010555
                                                         0.099466       0.017325
                          1       8    5fy3             10.077428      -0.467694
                                                         5.847736       0.618100
                                                         2.494033       0.066069
                                                         0.988355       0.262898
                                                         0.344978       0.004720
                                                         0.099466       0.007748
                          1       8    5fy2z            10.077428      -1.045795
                                                         5.847736       1.382114
                                                         2.494033       0.147734
                                                         0.988355       0.587859
                                                         0.344978       0.010555
                                                         0.099466       0.017325
                          1       8    5fyz2            10.077428      -1.045795
                                                         5.847736       1.382114
                                                         2.494033       0.147734
                                                         0.988355       0.587859
                                                         0.344978       0.010555
                                                         0.099466       0.017325
                          1       8    5fz3             10.077428      -0.467694
                                                         5.847736       0.618100
                                                         2.494033       0.066069
                                                         0.988355       0.262898
                                                         0.344978       0.004720
                                                         0.099466       0.007748

       Atomic covalent radius [Angstrom]:                                  1.150

       Atomic van der Waals radius [Angstrom]:                             1.630

     GTH Potential information for                                   GTH-PBE-q18

       Description:                       Goedecker-Teter-Hutter pseudopotential
                                           Goedecker et al., PRB 54, 1703 (1996)
                                          Hartwigsen et al., PRB 58, 3641 (1998)
                                                      Krack, TCA 114, 145 (2005)

       Gaussian exponent of the core charge distribution:               4.081633
       Electronic configuration (s p d ...):                           4   6   8

       Parameters of the local part of the GTH pseudopotential:

                          rloc        C1          C2          C3          C4
                        0.350000    2.102166    0.648484

       Parameters of the non-local part of the GTH pseudopotential:

                   l      r(l)      h(i,j,l)

                   0    0.261295    0.622658    9.970227
                                    9.970227  -12.871507
                   1    0.224253  -11.142708   12.429566
                                   12.429566  -14.706861
                   2    0.215348  -12.628146


 MOLECULE KIND INFORMATION


 All atoms are their own molecule, skipping detailed information


 TOTAL NUMBERS AND MAXIMUM NUMBERS

  Total number of            - Atomic kinds:                                   2
                             - Atoms:                                         32
                             - Shell sets:                                    32
                             - Shells:                                       256
                             - Primitive Cartesian functions:                192
                             - Cartesian basis functions:                    992
                             - Spherical basis functions:                    832

  Maximum angular momentum of- Orbital basis functions:                        3
                             - Local part of the GTH pseudopotential:          2
                             - Non-local part of the GTH pseudopotential:      3


 MODULE QUICKSTEP: ATOMIC COORDINATES IN ANGSTROM

   Atom Kind Element         X             Y             Z       Z(eff)     Mass
      1    1 Ni   28      0.876298      0.876298      7.370500  18.0000  58.6934
      2    1 Ni   28      0.876298      4.382298      7.370500  18.0000  58.6934
      3    1 Ni   28      2.629298      2.629298      7.370500  18.0000  58.6934
      4    1 Ni   28      2.629298      6.135298      7.370500  18.0000  58.6934
      5    1 Ni   28      4.382298      0.876298      7.370500  18.0000  58.6934
      6    1 Ni   28      4.382298      4.382298      7.370500  18.0000  58.6934
      7    1 Ni   28      6.135298      2.629298      7.370500  18.0000  58.6934
      8    1 Ni   28      6.135298      6.135298      7.370500  18.0000  58.6934
      9    2 Ni   28      0.876298      2.629298      9.123500  18.0000  58.6934
     10    2 Ni   28      0.876298      6.135298      9.123500  18.0000  58.6934
     11    2 Ni   28      2.629298      0.876298      9.123500  18.0000  58.6934
     12    2 Ni   28      2.629298      4.382298      9.123500  18.0000  58.6934
     13    2 Ni   28      4.382298      2.629298      9.123500  18.0000  58.6934
     14    2 Ni   28      4.382298      6.135298      9.123500  18.0000  58.6934
     15    2 Ni   28      6.135298      0.876298      9.123500  18.0000  58.6934
     16    2 Ni   28      6.135298      4.382298      9.123500  18.0000  58.6934
     17    2 Ni   28      0.876298      0.876298     10.876500  18.0000  58.6934
     18    2 Ni   28      0.876298      4.382298     10.876500  18.0000  58.6934
     19    2 Ni   28      2.629298      2.629298     10.876500  18.0000  58.6934
     20    2 Ni   28      2.629298      6.135298     10.876500  18.0000  58.6934
     21    2 Ni   28      4.382298      0.876298     10.876500  18.0000  58.6934
     22    2 Ni   28      4.382298      4.382298     10.876500  18.0000  58.6934
     23    2 Ni   28      6.135298      2.629298     10.876500  18.0000  58.6934
     24    2 Ni   28      6.135298      6.135298     10.876500  18.0000  58.6934
     25    1 Ni   28      0.876298      2.629298     12.629500  18.0000  58.6934
     26    1 Ni   28      0.876298      6.135298     12.629500  18.0000  58.6934
     27    1 Ni   28      2.629298      0.876298     12.629500  18.0000  58.6934
     28    1 Ni   28      2.629298      4.382298     12.629500  18.0000  58.6934
     29    1 Ni   28      4.382298      2.629298     12.629500  18.0000  58.6934
     30    1 Ni   28      4.382298      6.135298     12.629500  18.0000  58.6934
     31    1 Ni   28      6.135298      0.876298     12.629500  18.0000  58.6934
     32    1 Ni   28      6.135298      4.382298     12.629500  18.0000  58.6934



 SCF PARAMETERS         Density guess:                                    ATOMIC
                        --------------------------------------------------------
                        max_scf:                                             500
                        max_scf_history:                                       0
                        max_diis:                                              4
                        --------------------------------------------------------
                        eps_scf:                                        5.00E-04
                        eps_scf_history:                                0.00E+00
                        eps_diis:                                       1.00E-01
                        eps_eigval:                                     1.00E-05
                        --------------------------------------------------------
                        level_shift [a.u.]:                             0.000000
                        added MOs                                       534  553
                        --------------------------------------------------------
                        Mixing method:                            BROYDEN_MIXING
                                                charge density mixing in g-space
                        --------------------------------------------------------
                        Smear method:                                FERMI_DIRAC
                        Electronic temperature [K]:                       2000.0
                        Electronic temperature [a.u.]:                  6.33E-03
                        Accuracy threshold:                             1.00E-10
                        --------------------------------------------------------
                        No outer SCF

 PW_GRID| Information for grid number                                          1
 PW_GRID| Grid distributed over                                   128 processors
 PW_GRID| Real space group dimensions                                     8   16
 PW_GRID| the grid is blocked:                                               YES
 PW_GRID| Cutoff [a.u.]                                                    300.0
 PW_GRID| spherical cutoff:                                                   NO
 PW_GRID|   Bounds   1            -54      53                Points:         108
 PW_GRID|   Bounds   2            -54      53                Points:         108
 PW_GRID|   Bounds   3           -150     149                Points:         300
 PW_GRID| Volume element (a.u.^3)  0.1896E-02     Volume (a.u.^3)      6635.2971
 PW_GRID| Grid span                                                    FULLSPACE
 PW_GRID|   Distribution                         Average         Max         Min
 PW_GRID|   G-Vectors                            27337.5       28728       25272
 PW_GRID|   G-Rays                                 253.1         266         234
 PW_GRID|   Real Space Points                    27337.5       28728       25272

 PW_GRID| Information for grid number                                          2
 PW_GRID| Number of the reference grid                                         1
 PW_GRID| Grid distributed over                                   128 processors
 PW_GRID| Real space group dimensions                                     8   16
 PW_GRID| the grid is blocked:                                                NO
 PW_GRID| Cutoff [a.u.]                                                    100.0
 PW_GRID| spherical cutoff:                                                   NO
 PW_GRID|   Bounds   1            -30      29                Points:          60
 PW_GRID|   Bounds   2            -30      29                Points:          60
 PW_GRID|   Bounds   3            -90      89                Points:         180
 PW_GRID| Volume element (a.u.^3)  0.1024E-01     Volume (a.u.^3)      6635.2971
 PW_GRID| Grid span                                                    FULLSPACE
 PW_GRID|   Distribution                         Average         Max         Min
 PW_GRID|   G-Vectors                             5062.5       15960           0
 PW_GRID|   G-Rays                                  84.4         266           0
 PW_GRID|   Real Space Points                     5062.5        5760        3780

 PW_GRID| Information for grid number                                          3
 PW_GRID| Number of the reference grid                                         1
 PW_GRID| Grid distributed over                                   128 processors
 PW_GRID| Real space group dimensions                                     8   16
 PW_GRID| the grid is blocked:                                                NO
 PW_GRID| Cutoff [a.u.]                                                     33.3
 PW_GRID| spherical cutoff:                                                   NO
 PW_GRID|   Bounds   1            -18      17                Points:          36
 PW_GRID|   Bounds   2            -18      17                Points:          36
 PW_GRID|   Bounds   3            -50      49                Points:         100
 PW_GRID| Volume element (a.u.^3)  0.5120E-01     Volume (a.u.^3)      6635.2971
 PW_GRID| Grid span                                                    FULLSPACE
 PW_GRID|   Distribution                         Average         Max         Min
 PW_GRID|   G-Vectors                             1012.5        9576           0
 PW_GRID|   G-Rays                                  28.1         266           0
 PW_GRID|   Real Space Points                     1012.5        1500         800

 PW_GRID| Information for grid number                                          4
 PW_GRID| Number of the reference grid                                         1
 PW_GRID| Grid distributed over                                   128 processors
 PW_GRID| Real space group dimensions                                     8   16
 PW_GRID| the grid is blocked:                                                NO
 PW_GRID| Cutoff [a.u.]                                                     11.1
 PW_GRID| spherical cutoff:                                                   NO
 PW_GRID|   Bounds   1            -10       9                Points:          20
 PW_GRID|   Bounds   2            -10       9                Points:          20
 PW_GRID|   Bounds   3            -30      29                Points:          60
 PW_GRID| Volume element (a.u.^3)  0.2765         Volume (a.u.^3)      6635.2971
 PW_GRID| Grid span                                                    FULLSPACE
 PW_GRID|   Distribution                         Average         Max         Min
 PW_GRID|   G-Vectors                              187.5        3800           0
 PW_GRID|   G-Rays                                   9.4         190           0
 PW_GRID|   Real Space Points                      187.5         360         120

 PW_GRID| Information for grid number                                          5
 PW_GRID| Number of the reference grid                                         1
 PW_GRID| Grid distributed over                                   128 processors
 PW_GRID| Real space group dimensions                                     8   16
 PW_GRID| the grid is blocked:                                                NO
 PW_GRID| Cutoff [a.u.]                                                      3.7
 PW_GRID| spherical cutoff:                                                   NO
 PW_GRID|   Bounds   1             -6       5                Points:          12
 PW_GRID|   Bounds   2             -6       5                Points:          12
 PW_GRID|   Bounds   3            -18      17                Points:          36
 PW_GRID| Volume element (a.u.^3)   1.280         Volume (a.u.^3)      6635.2971
 PW_GRID| Grid span                                                    FULLSPACE
 PW_GRID|   Distribution                         Average         Max         Min
 PW_GRID|   G-Vectors                               40.5        1296           0
 PW_GRID|   G-Rays                                   3.4         108           0
 PW_GRID|   Real Space Points                       40.5          72           0

 POISSON| Solver                                                        PERIODIC
 POISSON| Periodicity                                                        XYZ

 RS_GRID| Information for grid number                                          1
 RS_GRID|   Bounds   1            -54      53                Points:         108
 RS_GRID|   Bounds   2            -54      53                Points:         108
 RS_GRID|   Bounds   3           -150     149                Points:         300
 RS_GRID| Real space distribution over                                  8 groups
 RS_GRID| Real space distribution along direction                              2
 RS_GRID| Border size                                                         28
 RS_GRID| Real space distribution over                                 16 groups
 RS_GRID| Real space distribution along direction                              3
 RS_GRID| Border size                                                         28
 RS_GRID|   Distribution                         Average         Max         Min
 RS_GRID|   Planes                                  69.5          70          69
 RS_GRID|   Distribution                         Average         Max         Min
 RS_GRID|   Planes                                  74.8          75          74

 RS_GRID| Information for grid number                                          2
 RS_GRID|   Bounds   1            -30      29                Points:          60
 RS_GRID|   Bounds   2            -30      29                Points:          60
 RS_GRID|   Bounds   3            -90      89                Points:         180
 RS_GRID| Real space fully replicated
 RS_GRID| Group size                                                           1

 RS_GRID| Information for grid number                                          3
 RS_GRID|   Bounds   1            -18      17                Points:          36
 RS_GRID|   Bounds   2            -18      17                Points:          36
 RS_GRID|   Bounds   3            -50      49                Points:         100
 RS_GRID| Real space fully replicated
 RS_GRID| Group size                                                           1

 RS_GRID| Information for grid number                                          4
 RS_GRID|   Bounds   1            -10       9                Points:          20
 RS_GRID|   Bounds   2            -10       9                Points:          20
 RS_GRID|   Bounds   3            -30      29                Points:          60
 RS_GRID| Real space fully replicated
 RS_GRID| Group size                                                           1

 RS_GRID| Information for grid number                                          5
 RS_GRID|   Bounds   1             -6       5                Points:          12
 RS_GRID|   Bounds   2             -6       5                Points:          12
 RS_GRID|   Bounds   3            -18      17                Points:          36
 RS_GRID| Real space fully replicated
 RS_GRID| Group size                                                           1

 Spin 1

 Number of electrons:                                                        297.600
 Number of occupied orbitals:                                                298
 Number of molecular orbitals:                                               832

 Spin 2

 Number of electrons:                                                        278.400
 Number of occupied orbitals:                                                279
 Number of molecular orbitals:                                               832

 Number of orbital functions:                                                832
 Number of independent orbital functions:                                    832

 Extrapolation method: initial_guess

 Atomic guess: The first density matrix is obtained in terms of atomic orbitals
               and electronic configurations assigned to each atomic kind

 Guess for atomic kind: Ni_i

 Electronic structure
    Total number of core electrons                                         10.00
    Total number of valence electrons                                      18.00
    Total number of electrons                                              28.00
    Multiplicity                                                         doublet
    Alpha Electrons
    S   [  1.00  1.00] 1.00  1.00
    P   [  3.00] 3.00
    D      4.35
    Beta Electrons
    S   [  1.00  1.00] 1.00  1.00
    P   [  3.00] 3.00
    D      3.65


 *******************************************************************************
                  Iteration          Convergence                     Energy [au]
 *******************************************************************************
                          1         1.51729                    -167.067424631347
                          2         15.3902                    -156.642654318634
                          3         2.33433                    -168.319355313541
                          4        0.206730                    -168.609905008081
                          5        0.814175E-01                -168.612873080494
                          6        0.173318E-01                -168.613470181066
                          7        0.290432E-02                -168.613543571401
                          8        0.311825E-02                -168.613543401474
                          9        0.179670E-03                -168.613544404477
                         10        0.169386E-02                -168.613544207811
                         11        0.473341E-03                -168.613544360253
                         12        0.165417E-03                -168.613544400419
                         13        0.162622E-03                -168.613544401489
                         14        0.158325E-03                -168.613544403900
                         15        0.177007E-03                -168.613544402509
                         16        0.138916E-03                -168.613544404900
                         17        0.934549E-04                -168.613544406149
                         18        0.119916E-03                -168.613544405789
                         19        0.131607E-03                -168.613544405591
                         20        0.169309E-03                -168.613544404773
                         21        0.551337E-04                -168.613544406656
                         22        0.382664E-04                -168.613544406759
                         23        0.378942E-04                -168.613544406765
                         24        0.381089E-04                -168.613544406765
                         25        0.390835E-04                -168.613544406759
                         26        0.308614E-04                -168.613544406841
                         27        0.205044E-04                -168.613544406892
                         28        0.200942E-04                -168.613544406893
                         29        0.199375E-04                -168.613544406893
                         30        0.200198E-04                -168.613544406894
                         31        0.161325E-04                -168.613544406903
                         32        0.330614E-05                -168.613544406925
                         33        0.238713E-05                -168.613544406926
                         34        0.265439E-05                -168.613544406926
                         35        0.277073E-05                -168.613544406926
                         36        0.335175E-05                -168.613544406926
                         37        0.148809E-05                -168.613544406927
                         38        0.133447E-05                -168.613544406927
                         39        0.918735E-06                -168.613544406927

 Energy components [Hartree]           Total Energy ::         -168.613544406927
                                        Band Energy ::          -26.569761966525
                                     Kinetic Energy ::           97.306723392622
                                   Potential Energy ::         -265.920267799548
                                      Virial (-V/T) ::            2.732804666812
                                        Core Energy ::         -299.567979157577
                                          XC Energy ::          -16.227189041387
                                     Coulomb Energy ::          147.181623792037
                       Total Pseudopotential Energy ::         -396.961043505191
                       Local Pseudopotential Energy ::         -362.648291121960
                    Nonlocal Pseudopotential Energy ::          -34.312752383230
                                        Confinement ::            0.863409549921

 Orbital energies  State     Spin  L     Occupation   Energy[a.u.]    Energy[eV]

                       1    alpha  0          1.000      -4.172666   -113.544030
                       2    alpha  0          1.000      -0.181431     -4.936983
                       1     beta  0          1.000      -4.140640   -112.672541
                       2     beta  0          1.000      -0.176372     -4.799339

                       1    alpha  1          3.000      -2.578739    -70.171064
                       1     beta  1          3.000      -2.547579    -69.323162

                       1    alpha  2          4.350      -0.327039     -8.899191
                       1     beta  2          3.650      -0.300569     -8.178887


 Total Electron Density at R=0:                                         0.030422

 Guess for atomic kind: Ni_b

 Electronic structure
    Total number of core electrons                                         10.00
    Total number of valence electrons                                      18.00
    Total number of electrons                                              28.00
    Multiplicity                                                         doublet
    Alpha Electrons
    S   [  1.00  1.00] 1.00  1.00
    P   [  3.00] 3.00
    D      4.25
    Beta Electrons
    S   [  1.00  1.00] 1.00  1.00
    P   [  3.00] 3.00
    D      3.75


 *******************************************************************************
                  Iteration          Convergence                     Energy [au]
 *******************************************************************************
                          1         1.51687                    -167.065012761055
                          2         14.9817                    -156.620431300845
                          3         2.25575                    -168.317311438693
                          4        0.189210                    -168.607926092750
                          5        0.708658E-01                -168.610773319290
                          6        0.122256E-01                -168.611238205502
                          7        0.598421E-02                -168.611272268995
                          8        0.528277E-02                -168.611272438110
                          9        0.104644E-02                -168.611275321653
                         10        0.260234E-02                -168.611274926630
                         11        0.975322E-03                -168.611275328217
                         12        0.161067E-03                -168.611275447773
                         13        0.147413E-03                -168.611275446839
                         14        0.115114E-03                -168.611275449434
                         15        0.167217E-03                -168.611275445436
                         16        0.255374E-04                -168.611275450531
                         17        0.418369E-04                -168.611275450414
                         18        0.393709E-04                -168.611275450477
                         19        0.239931E-04                -168.611275450542
                         20        0.173885E-04                -168.611275450557
                         21        0.851368E-05                -168.611275450578
                         22        0.849928E-05                -168.611275450580
                         23        0.544937E-05                -168.611275450584
                         24        0.540003E-05                -168.611275450586
                         25        0.613371E-05                -168.611275450584
                         26        0.311593E-06                -168.611275450588

 Energy components [Hartree]           Total Energy ::         -168.611275450588
                                        Band Energy ::          -26.568680144499
                                     Kinetic Energy ::           97.303659243130
                                   Potential Energy ::         -265.914934693718
                                      Virial (-V/T) ::            2.732835915546
                                        Core Energy ::         -299.566189183323
                                          XC Energy ::          -16.224592878785
                                     Coulomb Energy ::          147.179506611520
                       Total Pseudopotential Energy ::         -396.956189041778
                       Local Pseudopotential Energy ::         -362.645043136649
                    Nonlocal Pseudopotential Energy ::          -34.311145905129
                                        Confinement ::            0.863406153250

 Orbital energies  State     Spin  L     Occupation   Energy[a.u.]    Energy[eV]

                       1    alpha  0          1.000      -4.168335   -113.426177
                       2    alpha  0          1.000      -0.180730     -4.917906
                       1     beta  0          1.000      -4.145459   -112.803683
                       2     beta  0          1.000      -0.177117     -4.819606

                       1    alpha  1          3.000      -2.574525    -70.056390
                       1     beta  1          3.000      -2.552268    -69.450746

                       1    alpha  2          4.250      -0.323446     -8.801405
                       1     beta  2          3.750      -0.304537     -8.286881


 Total Electron Density at R=0:                                         0.030429

 Spin 1
 Re-scaling the density matrix to get the right number of electrons for spin 1
                  # Electrons              Trace(P)               Scaling factor
                        297.600             297.600                        1.000

 Spin 2
 Re-scaling the density matrix to get the right number of electrons for spin 2
                  # Electrons              Trace(P)               Scaling factor
                        278.400             278.400                        1.000


 SCF WAVEFUNCTION OPTIMIZATION

  Step     Update method      Time    Convergence         Total energy    Change
  ------------------------------------------------------------------------------
     1 NoMix/Diag. 0.40E+00    2.7     0.87318318     -5426.4441344177 -5.43E+03
     2 Broy./Diag. 0.40E+00    1.5     0.08077916     -5337.9957419376  8.84E+01
[...]
   128 Broy./Diag. 0.40E+00    1.5     0.04902419     -5417.8292568306  1.33E-02
   129 Broy./Diag. 0.40E+00    1.5     0.06139300     -5417.8199653384  9.29E-03
   130 Broy./Diag. 0.40E+00    1.5     0.05389777     -5417.6326422200  1.87E-01
   131 Broy./Diag. 0.40E+00    1.5     0.02613699     -5417.8247186589 -1.92E-01
   132 Broy./Diag. 0.40E+00    1.5     0.05476466     -5417.8013443867  2.34E-02
   133 Broy./Diag. 0.40E+00    1.5     0.05490270     -5418.0496075100 -2.48E-01
   134 Broy./Diag. 0.40E+00    1.5     0.05050687     -5417.7858404015  2.64E-01
   135 Broy./Diag. 0.40E+00    1.5     0.05988454     -5417.8448365353 -5.90E-02
   136 Broy./Diag. 0.40E+00    1.5     0.03677476     -5417.7806696747  6.42E-02
   137 Broy./Diag. 0.40E+00    1.5     0.02078545     -5417.7716756602  8.99E-03
   138 Broy./Diag. 0.40E+00    1.5     0.01207766     -5417.8110044372 -3.93E-02
   139 Broy./Diag. 0.40E+00    1.5     0.02177826     -5417.7950646765  1.59E-02
   140 Broy./Diag. 0.40E+00    1.5     0.08595787     -5417.8022724246 -7.21E-03
   141 Broy./Diag. 0.40E+00    1.5     0.03130532     -5417.8194611920 -1.72E-02
   142 Broy./Diag. 0.40E+00    1.5     0.07317479     -5417.8271632058 -7.70E-03
   143 Broy./Diag. 0.40E+00    1.5     0.06107168     -5417.8250945617  2.07E-03
   144 Broy./Diag. 0.40E+00    1.5     0.06950182     -5417.8349620193 -9.87E-03
   145 Broy./Diag. 0.40E+00    1.5     0.03827538     -5417.8385174093 -3.56E-03
   146 Broy./Diag. 0.40E+00    1.5     0.03117065     -5417.8238309905  1.47E-02
   147 Broy./Diag. 0.40E+00    1.5     0.01128192     -5417.8520736037 -2.82E-02
   148 Broy./Diag. 0.40E+00    1.5     0.02501795     -5417.8425939031  9.48E-03
   149 Broy./Diag. 0.40E+00    1.5     0.02556957     -5417.8316420015  1.10E-02
   150 Broy./Diag. 0.40E+00    1.5     0.01349549     -5417.8217657979  9.88E-03
   151 Broy./Diag. 0.40E+00    1.5     0.03809582     -5417.8174526215  4.31E-03
   152 Broy./Diag. 0.40E+00    1.5     0.05621267     -5417.9655395286 -1.48E-01
   153 Broy./Diag. 0.40E+00    1.5     0.03122799     -5417.7819348493  1.84E-01
   154 Broy./Diag. 0.40E+00    1.5     0.02146941     -5417.7301730184  5.18E-02
   155 Broy./Diag. 0.40E+00    1.5     0.01734847     -5417.7205024631  9.67E-03
   156 Broy./Diag. 0.40E+00    1.5     0.14854695     -5417.7250983526 -4.60E-03
   157 Broy./Diag. 0.40E+00    1.5     0.15056798     -5417.9233616836 -1.98E-01
   158 Broy./Diag. 0.40E+00    1.5     0.13997012     -5417.9849306628 -6.16E-02
   159 Broy./Diag. 0.40E+00    1.5     0.07459175     -5417.7695718147  2.15E-01
   160 Broy./Diag. 0.40E+00    1.5     0.04073870     -5417.6145384023  1.55E-01
   161 Broy./Diag. 0.40E+00    1.5     0.11053235     -5417.6551408389 -4.06E-02
   162 Broy./Diag. 0.40E+00    1.5     0.09757141     -5417.8873346931 -2.32E-01
   163 Broy./Diag. 0.40E+00    1.5     0.02010878     -5417.7955750240  9.18E-02
   164 Broy./Diag. 0.40E+00    1.5     0.01637754     -5417.7301435368  6.54E-02
   165 Broy./Diag. 0.40E+00    1.5     0.10384755     -5417.8067326159 -7.66E-02
   166 Broy./Diag. 0.40E+00    1.5     0.01624186     -5417.8173323566 -1.06E-02
   167 Broy./Diag. 0.40E+00    1.5     0.03134381     -5417.7756186255  4.17E-02
   168 Broy./Diag. 0.40E+00    1.5     0.01012153     -5417.8115209787 -3.59E-02
   169 Broy./Diag. 0.40E+00    1.5     0.01702374     -5417.8340749049 -2.26E-02
   170 Broy./Diag. 0.40E+00    1.5     0.06660535     -5417.8330637924  1.01E-03
   171 Broy./Diag. 0.40E+00    1.5     0.05643833     -5417.8305369374  2.53E-03
   172 Broy./Diag. 0.40E+00    1.5     0.09853828     -5417.8350591522 -4.52E-03
   173 Broy./Diag. 0.40E+00    1.5     0.03850413     -5417.7827405088  5.23E-02
   174 Broy./Diag. 0.40E+00    1.5     0.04235652     -5417.8303198956 -4.76E-02
   175 Broy./Diag. 0.40E+00    1.5     0.04189021     -5417.7548819704  7.54E-02
   176 Broy./Diag. 0.40E+00    1.5     0.02203621     -5417.8087912999 -5.39E-02
   177 Broy./Diag. 0.40E+00    1.5     0.02344788     -5417.7830235741  2.58E-02
   178 Broy./Diag. 0.40E+00    1.5     0.03224245     -5417.8157841256 -3.28E-02
   179 Broy./Diag. 0.40E+00    1.5     0.08974355     -5417.8608175066 -4.50E-02
   180 Broy./Diag. 0.40E+00    1.5     0.04441284     -5417.7675400135  9.33E-02
   181 Broy./Diag. 0.40E+00    1.5     0.04874213     -5417.8452811847 -7.77E-02
   182 Broy./Diag. 0.40E+00    1.5     0.05617611     -5417.9190486914 -7.38E-02
   183 Broy./Diag. 0.40E+00    1.5     0.06752179     -5417.7496632193  1.69E-01
   184 Broy./Diag. 0.40E+00    1.5     0.02013525     -5417.6747198523  7.49E-02
   185 Broy./Diag. 0.40E+00    1.5     0.02048712     -5417.6768673043 -2.15E-03
   186 Broy./Diag. 0.40E+00    1.5     0.04977788     -5417.6191165009  5.78E-02
   187 Broy./Diag. 0.40E+00    1.5     0.05122436     -5417.6576210938 -3.85E-02
   188 Broy./Diag. 0.40E+00    1.5     0.07653603     -5417.7456716812 -8.81E-02
   189 Broy./Diag. 0.40E+00    1.5     0.12682833     -5418.0879225958 -3.42E-01
   190 Broy./Diag. 0.40E+00    1.5     0.05196709     -5417.8765311959  2.11E-01
   191 Broy./Diag. 0.40E+00    1.5     0.03856355     -5417.8687428016  7.79E-03
   192 Broy./Diag. 0.40E+00    1.5     0.10813792     -5417.9367743290 -6.80E-02
   193 Broy./Diag. 0.40E+00    1.5     0.09610442     -5417.9586935594 -2.19E-02
   194 Broy./Diag. 0.40E+00    1.5     0.05160121     -5417.8137622998  1.45E-01
   195 Broy./Diag. 0.40E+00    1.5     0.07432907     -5417.8422809057 -2.85E-02
   196 Broy./Diag. 0.40E+00    1.5     0.11344286     -5417.8383239269  3.96E-03
   197 Broy./Diag. 0.40E+00    1.5     0.07974077     -5417.8912752886 -5.30E-02
   198 Broy./Diag. 0.40E+00    1.5     0.10585206     -5417.8551919209  3.61E-02
   199 Broy./Diag. 0.40E+00    1.5     0.07231810     -5418.0178894813 -1.63E-01
   200 Broy./Diag. 0.40E+00    1.5     0.04974173     -5417.7970659666  2.21E-01
   201 Broy./Diag. 0.40E+00    1.5     0.03612319     -5417.8513974211 -5.43E-02
   202 Broy./Diag. 0.40E+00    1.5     0.11898838     -5417.8606837630 -9.29E-03
   203 Broy./Diag. 0.40E+00    1.5     0.15041014     -5417.9863041547 -1.26E-01
   204 Broy./Diag. 0.40E+00    1.5     0.11980860     -5417.8166589330  1.70E-01
   205 Broy./Diag. 0.40E+00    1.5     0.07130642     -5417.7383870263  7.83E-02
   206 Broy./Diag. 0.40E+00    1.5     0.19362040     -5417.5809797789  1.57E-01
   207 Broy./Diag. 0.40E+00    1.5     0.12217877     -5417.8371074298 -2.56E-01
   208 Broy./Diag. 0.40E+00    1.5     0.22437926     -5417.9234586213 -8.64E-02
   209 Broy./Diag. 0.40E+00    1.5     0.17218939     -5417.7419810568  1.81E-01
   210 Broy./Diag. 0.40E+00    1.5     0.14837831     -5417.9664549671 -2.24E-01
   211 Broy./Diag. 0.40E+00    1.5     0.07589057     -5418.0460570776 -7.96E-02
   212 Broy./Diag. 0.40E+00    1.5     0.14736933     -5417.6888479014  3.57E-01
   213 Broy./Diag. 0.40E+00    1.5     0.04436045     -5418.0127147427 -3.24E-01
   214 Broy./Diag. 0.40E+00    1.5     0.25168880     -5418.1067812812 -9.41E-02
   215 Broy./Diag. 0.40E+00    1.5     0.11652567     -5417.8432307062  2.64E-01
   216 Broy./Diag. 0.40E+00    1.5     0.05959081     -5418.2464131718 -4.03E-01
   217 Broy./Diag. 0.40E+00    1.5     0.21016034     -5418.0652569136  1.81E-01
   218 Broy./Diag. 0.40E+00    1.5     0.09516284     -5417.5296317042  5.36E-01
   219 Broy./Diag. 0.40E+00    1.5     0.05279220     -5417.3383658304  1.91E-01
   220 Broy./Diag. 0.40E+00    1.5     0.06839027     -5416.9084713050  4.30E-01
   221 Broy./Diag. 0.40E+00    1.5     0.05613776     -5416.8898295076  1.86E-02
   222 Broy./Diag. 0.40E+00    1.5     0.10868182     -5417.0261155292 -1.36E-01
   223 Broy./Diag. 0.40E+00    1.5     0.12575243     -5417.4610763214 -4.35E-01
   224 Broy./Diag. 0.40E+00    1.5     0.07468714     -5417.3536229737  1.07E-01
   225 Broy./Diag. 0.40E+00    1.5     0.02905405     -5417.2323861626  1.21E-01
   226 Broy./Diag. 0.40E+00    1.5     0.03857414     -5417.2947761302 -6.24E-02
   227 Broy./Diag. 0.40E+00    1.5     0.09187981     -5417.2803989164  1.44E-02
   228 Broy./Diag. 0.40E+00    1.5     0.18592069     -5417.4356784213 -1.55E-01
   229 Broy./Diag. 0.40E+00    1.5     0.05105353     -5416.9027244990  5.33E-01
   230 Broy./Diag. 0.40E+00    1.5     0.25754617     -5417.2136736771 -3.11E-01
   231 Broy./Diag. 0.40E+00    1.5     0.26845881     -5416.7989743184  4.15E-01
   232 Broy./Diag. 0.40E+00    1.5     0.08545745     -5418.6800659223 -1.88E+00
   233 Broy./Diag. 0.40E+00    1.5     0.10948944     -5418.6035562496  7.65E-02
   234 Broy./Diag. 0.40E+00    1.5     0.06044062     -5418.3354089636  2.68E-01
   235 Broy./Diag. 0.40E+00    1.5     0.03114655     -5418.1770905307  1.58E-01
   236 Broy./Diag. 0.40E+00    1.5     0.12429470     -5418.3646855095 -1.88E-01
   237 Broy./Diag. 0.40E+00    1.5     0.04558845     -5417.9286108142  4.36E-01
   238 Broy./Diag. 0.40E+00    1.5     0.06687138     -5417.9421141539 -1.35E-02
   239 Broy./Diag. 0.40E+00    1.5     0.05640296     -5417.9183717101  2.37E-02
   240 Broy./Diag. 0.40E+00    1.5     0.17608283     -5417.8338356835  8.45E-02
   241 Broy./Diag. 0.40E+00    1.5     0.15202102     -5417.2111158177  6.23E-01
   242 Broy./Diag. 0.40E+00    1.5     0.04651926     -5417.6399419375 -4.29E-01
   243 Broy./Diag. 0.40E+00    1.5     0.03288995     -5417.8723766795 -2.32E-01
   244 Broy./Diag. 0.40E+00    1.5     0.07424390     -5417.6800411728  1.92E-01
   245 Broy./Diag. 0.40E+00    1.5     0.24619065     -5417.9511603038 -2.71E-01
   246 Broy./Diag. 0.40E+00    1.5     0.22901333     -5418.5632783154 -6.12E-01
   247 Broy./Diag. 0.40E+00    1.5     0.09564654     -5418.1570944831  4.06E-01
   248 Broy./Diag. 0.40E+00    1.5     0.12797941     -5417.7459967242  4.11E-01
   249 Broy./Diag. 0.40E+00    1.5     0.08869372     -5417.7404355431  5.56E-03
   250 Broy./Diag. 0.40E+00    1.5     0.30069205     -5417.8201840897 -7.97E-02
   251 Broy./Diag. 0.40E+00    1.5     0.05861165     -5417.7552997731  6.49E-02
   252 Broy./Diag. 0.40E+00    1.5     0.02934469     -5417.6733899151  8.19E-02
   253 Broy./Diag. 0.40E+00    1.5     0.06744760     -5417.6032757464  7.01E-02
   254 Broy./Diag. 0.40E+00    1.5     0.09218418     -5417.2293958031  3.74E-01
   255 Broy./Diag. 0.40E+00    1.5     0.10320183     -5416.4626278855  7.67E-01
   256 Broy./Diag. 0.40E+00    1.5     0.18474438     -5416.4493875594  1.32E-02
   257 Broy./Diag. 0.40E+00    1.5     0.04179834     -5416.9810970890 -5.32E-01
   258 Broy./Diag. 0.40E+00    1.5     0.23776372     -5417.1697046415 -1.89E-01
   259 Broy./Diag. 0.40E+00    1.5     0.29237061     -5418.0966396209 -9.27E-01
   260 Broy./Diag. 0.40E+00    1.5     0.17787663     -5418.8241135457 -7.27E-01
   261 Broy./Diag. 0.40E+00    1.5     0.12611188     -5417.3529898229  1.47E+00
   262 Broy./Diag. 0.40E+00    1.5     0.06494156     -5417.5185142756 -1.66E-01
   263 Broy./Diag. 0.40E+00    1.5     0.08459615     -5417.4010192568  1.17E-01
   264 Broy./Diag. 0.40E+00    1.5     0.08052098     -5417.4031005073 -2.08E-03
   265 Broy./Diag. 0.40E+00    1.5     0.07858634     -5417.5789872345 -1.76E-01
   266 Broy./Diag. 0.40E+00    1.5     0.08537723     -5417.6632300802 -8.42E-02
   267 Broy./Diag. 0.40E+00    1.5     0.21425432     -5417.2858916177  3.77E-01
   268 Broy./Diag. 0.40E+00    1.5     0.18156339     -5415.4986857542  1.79E+00
   269 Broy./Diag. 0.40E+00    1.5     0.17974313     -5415.8407934201 -3.42E-01
   270 Broy./Diag. 0.40E+00    1.5     0.25566137     -5416.3434224177 -5.03E-01
   271 Broy./Diag. 0.40E+00    1.5     0.14894561     -5415.9500598513  3.93E-01
   272 Broy./Diag. 0.40E+00    1.5     0.08901335     -5416.6524302378 -7.02E-01
   273 Broy./Diag. 0.40E+00    1.5     0.07872915     -5416.2885427424  3.64E-01
   274 Broy./Diag. 0.40E+00    1.5     0.09953739     -5416.4400984745 -1.52E-01
   275 Broy./Diag. 0.40E+00    1.5     0.22809957     -5416.8781818424 -4.38E-01
   276 Broy./Diag. 0.40E+00    1.5     0.26480065     -5418.0726277136 -1.19E+00
   277 Broy./Diag. 0.40E+00    1.5     0.21311874     -5418.8736211919 -8.01E-01
   278 Broy./Diag. 0.40E+00    1.5     0.13056744     -5417.4431601287  1.43E+00
   279 Broy./Diag. 0.40E+00    1.5     0.57751013     -5416.8364140626  6.07E-01
   280 Broy./Diag. 0.40E+00    1.5     0.44857844     -5420.5017607058 -3.67E+00
   281 Broy./Diag. 0.40E+00    1.5     0.06577807     -5418.9566587820  1.55E+00
   282 Broy./Diag. 0.40E+00    1.5     0.26991605     -5418.7989045994  1.58E-01
   283 Broy./Diag. 0.40E+00    1.5     0.25560923     -5418.4307224231  3.68E-01
   284 Broy./Diag. 0.40E+00    1.5     0.11248265     -5418.1736345084  2.57E-01
   285 Broy./Diag. 0.40E+00    1.5     0.05087285     -5417.8838512535  2.90E-01
   286 Broy./Diag. 0.40E+00    1.5     0.04149666     -5417.7449835124  1.39E-01
   287 Broy./Diag. 0.40E+00    1.5     0.10247461     -5417.8882534230 -1.43E-01
   288 Broy./Diag. 0.40E+00    1.5     0.24079596     -5417.9639336456 -7.57E-02
   289 Broy./Diag. 0.40E+00    1.5     0.18630081     -5418.1003813411 -1.36E-01
   290 Broy./Diag. 0.40E+00    1.5     0.28093798     -5420.2601630357 -2.16E+00
   291 Broy./Diag. 0.40E+00    1.5     0.21817144     -5416.3499342557  3.91E+00
   292 Broy./Diag. 0.40E+00    1.5     0.09013873     -5417.8428640550 -1.49E+00
   293 Broy./Diag. 0.40E+00    1.5     0.31845043     -5417.2298640637  6.13E-01
   294 Broy./Diag. 0.40E+00    1.5     0.17178861     -5418.0594739130 -8.30E-01
   295 Broy./Diag. 0.40E+00    1.5     0.10357053     -5418.3386998502 -2.79E-01
   296 Broy./Diag. 0.40E+00    1.5     0.05310410     -5418.3329973609  5.70E-03
   297 Broy./Diag. 0.40E+00    1.5     0.28042636     -5417.8338824241  4.99E-01
   298 Broy./Diag. 0.40E+00    1.5     0.37627962     -5418.8094658466 -9.76E-01
   299 Broy./Diag. 0.40E+00    1.5     0.12535855     -5415.1299852356  3.68E+00
   300 Broy./Diag. 0.40E+00    1.5     0.09710119     -5415.5811488969 -4.51E-01
   301 Broy./Diag. 0.40E+00    1.5     0.12591508     -5415.8088400801 -2.28E-01
   302 Broy./Diag. 0.40E+00    1.5     0.26840129     -5415.6077119209  2.01E-01
   303 Broy./Diag. 0.40E+00    1.5     0.14561026     -5414.2375802698  1.37E+00
   304 Broy./Diag. 0.40E+00    1.5     0.15509586     -5415.0398508090 -8.02E-01
   305 Broy./Diag. 0.40E+00    1.5     0.07633440     -5416.4091721211 -1.37E+00
   306 Broy./Diag. 0.40E+00    1.5     0.03899928     -5416.7013835925 -2.92E-01
   307 Broy./Diag. 0.40E+00    1.5     0.56524595     -5416.2418812977  4.60E-01
   308 Broy./Diag. 0.40E+00    1.5     0.52101212     -5421.3470517708 -5.11E+00
   309 Broy./Diag. 0.40E+00    1.5     0.14241162     -5417.3829684737  3.96E+00
   310 Broy./Diag. 0.40E+00    1.5     0.09173867     -5417.3631157039  1.99E-02
   311 Broy./Diag. 0.40E+00    1.5     0.19244494     -5414.4963191666  2.87E+00
   312 Broy./Diag. 0.40E+00    1.5     0.20099971     -5419.2993586392 -4.80E+00
   313 Broy./Diag. 0.40E+00    1.5     0.18787746     -5418.5883822098  7.11E-01
   314 Broy./Diag. 0.40E+00    1.5     0.10618550     -5419.1112639517 -5.23E-01
   315 Broy./Diag. 0.40E+00    1.5     0.13819309     -5418.8468836973  2.64E-01
   316 Broy./Diag. 0.40E+00    1.5     0.11328887     -5418.4782463105  3.69E-01
   317 Broy./Diag. 0.40E+00    1.5     0.42882832     -5419.0872958794 -6.09E-01
   318 Broy./Diag. 0.40E+00    1.5     0.51264249     -5419.4825948273 -3.95E-01
   319 Broy./Diag. 0.40E+00    1.5     0.35809716     -5416.6267619723  2.86E+00
   320 Broy./Diag. 0.40E+00    1.5     0.11324895     -5416.0901970971  5.37E-01
   321 Broy./Diag. 0.40E+00    1.5     0.09726604     -5417.1320624931 -1.04E+00
   322 Broy./Diag. 0.40E+00    1.5     0.42489839     -5417.1264368924  5.63E-03
   323 Broy./Diag. 0.40E+00    1.5     0.09370582     -5419.4833163254 -2.36E+00
   324 Broy./Diag. 0.40E+00    1.5     0.07333401     -5418.3786114697  1.10E+00
   325 Broy./Diag. 0.40E+00    1.5     0.04521250     -5418.2595298208  1.19E-01
   326 Broy./Diag. 0.40E+00    1.5     0.20101971     -5418.8801799296 -6.21E-01
   327 Broy./Diag. 0.40E+00    1.5     0.33727633     -5413.2531450417  5.63E+00
   328 Broy./Diag. 0.40E+00    1.5     0.22075261     -5416.2110820737 -2.96E+00
   329 Broy./Diag. 0.40E+00    1.5     0.22178109     -5416.4123463515 -2.01E-01
   330 Broy./Diag. 0.40E+00    1.5     0.09972399     -5416.4672410439 -5.49E-02
   331 Broy./Diag. 0.40E+00    1.5     0.32938135     -5415.8498414563  6.17E-01
   332 Broy./Diag. 0.40E+00    1.5     0.32767552     -5419.8134089023 -3.96E+00
   333 Broy./Diag. 0.40E+00    1.5     0.18445934     -5419.5803805399  2.33E-01
   334 Broy./Diag. 0.40E+00    1.5     0.07888039     -5418.7295846817  8.51E-01
   335 Broy./Diag. 0.40E+00    1.5     0.09320813     -5418.5196913725  2.10E-01
   336 Broy./Diag. 0.40E+00    1.5     0.16202397     -5418.1350564602  3.85E-01
   337 Broy./Diag. 0.40E+00    1.5     0.24946052     -5416.8784756120  1.26E+00
   338 Broy./Diag. 0.40E+00    1.5     0.44608730     -5418.2510825178 -1.37E+00
   339 Broy./Diag. 0.40E+00    1.5     0.36730588     -5421.4249291254 -3.17E+00
   340 Broy./Diag. 0.40E+00    1.5     0.39480962     -5417.5278463260  3.90E+00
   341 Broy./Diag. 0.40E+00    1.5     0.13153036     -5414.5441473818  2.98E+00
   342 Broy./Diag. 0.40E+00    1.5     0.06619682     -5414.4114496538  1.33E-01
   343 Broy./Diag. 0.40E+00    1.5     0.09588034     -5416.9109683538 -2.50E+00
   344 Broy./Diag. 0.40E+00    1.5     0.08561385     -5416.4925933497  4.18E-01
   345 Broy./Diag. 0.40E+00    1.5     0.14489082     -5418.0154971589 -1.52E+00
   346 Broy./Diag. 0.40E+00    1.5     0.28281610     -5419.8610744245 -1.85E+00
   347 Broy./Diag. 0.40E+00    1.5     0.25886268     -5418.1123176126  1.75E+00
   348 Broy./Diag. 0.40E+00    1.5     0.27271318     -5417.2198335038  8.92E-01
   349 Broy./Diag. 0.40E+00    1.5     0.06492928     -5421.7719706108 -4.55E+00
   350 Broy./Diag. 0.40E+00    1.5     0.10684903     -5420.7584519997  1.01E+00
   351 Broy./Diag. 0.40E+00    1.5     0.06272833     -5419.1640885622  1.59E+00
   352 Broy./Diag. 0.40E+00    1.5     0.21659630     -5419.1834107247 -1.93E-02
   353 Broy./Diag. 0.40E+00    1.5     0.20391522     -5417.6564506446  1.53E+00
   354 Broy./Diag. 0.40E+00    1.5     0.14336257     -5414.4049071090  3.25E+00
   355 Broy./Diag. 0.40E+00    1.5     0.19156194     -5415.2811534165 -8.76E-01
   356 Broy./Diag. 0.40E+00    1.5     0.14922528     -5414.9711939402  3.10E-01
   357 Broy./Diag. 0.40E+00    1.5     0.09114370     -5413.1982732385  1.77E+00
   358 Broy./Diag. 0.40E+00    1.5     0.13723947     -5414.1138329808 -9.16E-01
   359 Broy./Diag. 0.40E+00    1.5     0.50111887     -5416.1759551156 -2.06E+00
   360 Broy./Diag. 0.40E+00    1.5     0.10240879     -5415.7243520085  4.52E-01
   361 Broy./Diag. 0.40E+00    1.5     0.11354258     -5415.8593535987 -1.35E-01
   362 Broy./Diag. 0.40E+00    1.5     0.29550720     -5417.1217385591 -1.26E+00
   363 Broy./Diag. 0.40E+00    1.5     0.27736246     -5418.6736372210 -1.55E+00
   364 Broy./Diag. 0.40E+00    1.5     0.07818001     -5417.7717081557  9.02E-01
   365 Broy./Diag. 0.40E+00    1.5     0.05420485     -5418.2676097937 -4.96E-01
   366 Broy./Diag. 0.40E+00    1.5     0.37754894     -5418.1539947424  1.14E-01
   367 Broy./Diag. 0.40E+00    1.5     0.10191391     -5418.9626035369 -8.09E-01
   368 Broy./Diag. 0.40E+00    1.5     0.62903105     -5418.6476841238  3.15E-01
   369 Broy./Diag. 0.40E+00    1.5     0.45616879     -5420.7192918391 -2.07E+00
   370 Broy./Diag. 0.40E+00    1.5     0.13348067     -5420.1725858523  5.47E-01
   371 Broy./Diag. 0.40E+00    1.5     0.11855921     -5419.3474682878  8.25E-01
   372 Broy./Diag. 0.40E+00    1.5     0.11597935     -5419.5225695605 -1.75E-01
   373 Broy./Diag. 0.40E+00    1.5     0.14302519     -5421.0490434544 -1.53E+00
