 DBCSR| CPU Multiplication driver                                           XSMM (U)
 DBCSR| Multrec recursion limit                                              512 (U)
 DBCSR| Multiplication stack size                                           1000 (D)
 DBCSR| Maximum elements for images                                    UNLIMITED (U)
 DBCSR| Multiplicative factor virtual images                                   1 (U)
 DBCSR| Use multiplication densification                                       T (D)
 DBCSR| Multiplication size stacks                                             3 (U)
 DBCSR| Use memory pool for CPU allocation                                     F (U)
 DBCSR| Number of 3D layers                                               SINGLE (U)
 DBCSR| Use MPI memory allocation                                              F (U)
 DBCSR| Use RMA algorithm                                                      F (U)
 DBCSR| Use Communication thread                                               T (U)
 DBCSR| Communication thread load                                             87 (D)
 DBCSR| MPI: My process id                                                     0
 DBCSR| MPI: Number of processes                                             128
 DBCSR| OMP: Current number of threads                                         1
 DBCSR| OMP: Max number of threads                                             1
 DBCSR| Split modifier for TAS multiplication algorithm                  1.0E+00 (U)


  **** **** ******  **  PROGRAM STARTED AT               2023-02-06 17:11:21.570
 ***** ** ***  *** **   PROGRAM STARTED ON                             nid001650
 **    ****   ******    PROGRAM STARTED BY                                cahart
 ***** **    ** ** **   PROGRAM PROCESS ID                                181912
  **** **  *******  **  PROGRAM STARTED IN /mnt/lustre/a2fs-work2/work/e05/e05/c
                                           ahart/postdoc/masters/ni/archer2/bulk
                                           /optimise/multiplicity-65_mos-30_temp
                                           -300/search/4.0E-02_5.0E-01

 CP2K| version string:                                       CP2K version 2023.1
 CP2K| source code revision number:                                  git:b888bd8
 CP2K| cp2kflags: omp libint fftw3 libxc elpa parallel scalapack xsmm plumed2 mk
 CP2K|            l
 CP2K| is freely available from                            https://www.cp2k.org/
 CP2K| Program compiled at                          Tue Jan 24 12:43:13 GMT 2023
 CP2K| Program compiled on                                                  ln03
 CP2K| Program compiled for                                              ARCHER2
 CP2K| Data directory path    /mnt/lustre/a2fs-work1/work/y07/shared/apps/core/c
 CP2K| Input file name                                                  cp2k.inp

 GLOBAL| Force Environment number                                              1
 GLOBAL| Basis set file name                                        BASIS_MOLOPT
 GLOBAL| Potential file name                                      GTH_POTENTIALS
 GLOBAL| MM Potential file name                                     MM_POTENTIAL
 GLOBAL| Coordinate file name                                      __STD_INPUT__
 GLOBAL| Method name                                                        CP2K
 GLOBAL| Project name                                                    Ni_bulk
 GLOBAL| Run type                                                         ENERGY
 GLOBAL| FFT library                                                       FFTW3
 GLOBAL| Diagonalization library                                            ELPA
 GLOBAL| DGEMM library                                                      BLAS
 GLOBAL| Minimum number of eigenvectors for ELPA usage                        16
 GLOBAL| Orthonormality check for eigenvectors                          DISABLED
 GLOBAL| Matrix multiplication library                                 ScaLAPACK
 GLOBAL| All-to-all communication in single precision                          F
 GLOBAL| FFTs using library dependent lengths                                  F
 GLOBAL| Grid backend                                                       AUTO
 GLOBAL| Global print level                                               MEDIUM
 GLOBAL| MPI I/O enabled                                                       T
 GLOBAL| Total number of message passing processes                           128
 GLOBAL| Number of threads for this process                                    1
 GLOBAL| This output is from process                                           0
 GLOBAL| Stack size for threads created by OpenMP (OMP_STACKSIZE)        default
 GLOBAL| CPU model name                          AMD EPYC 7742 64-Core Processor
 GLOBAL| CPUID                                                              1002

 MEMORY| system memory details [Kb]
 MEMORY|                        rank 0           min           max       average
 MEMORY| MemTotal            263528084     263528084     263528084     263528084
 MEMORY| MemFree             241770932     241770932     241770932     241770932
 MEMORY| Buffers                 38256         38256         38256         38256
 MEMORY| Cached                1034424       1034424       1034424       1034424
 MEMORY| Slab                  1616652       1616652       1616652       1616652
 MEMORY| SReclaimable            84328         84328         84328         84328
 MEMORY| MemLikelyFree       242927940     242927940     242927940     242927940


 *** Fundamental physical constants (SI units) ***

 *** Literature: B. J. Mohr and B. N. Taylor,
 ***             CODATA recommended values of the fundamental physical
 ***             constants: 2006, Web Version 5.1
 ***             http://physics.nist.gov/constants

 Speed of light in vacuum [m/s]                             2.99792458000000E+08
 Magnetic constant or permeability of vacuum [N/A**2]       1.25663706143592E-06
 Electric constant or permittivity of vacuum [F/m]          8.85418781762039E-12
 Planck constant (h) [J*s]                                  6.62606896000000E-34
 Planck constant (h-bar) [J*s]                              1.05457162825177E-34
 Elementary charge [C]                                      1.60217648700000E-19
 Electron mass [kg]                                         9.10938215000000E-31
 Electron g factor [ ]                                     -2.00231930436220E+00
 Proton mass [kg]                                           1.67262163700000E-27
 Fine-structure constant                                    7.29735253760000E-03
 Rydberg constant [1/m]                                     1.09737315685270E+07
 Avogadro constant [1/mol]                                  6.02214179000000E+23
 Boltzmann constant [J/K]                                   1.38065040000000E-23
 Atomic mass unit [kg]                                      1.66053878200000E-27
 Bohr radius [m]                                            5.29177208590000E-11

 *** Conversion factors ***

 [u] -> [a.u.]                                              1.82288848426455E+03
 [Angstrom] -> [Bohr] = [a.u.]                              1.88972613288564E+00
 [a.u.] = [Bohr] -> [Angstrom]                              5.29177208590000E-01
 [a.u.] -> [s]                                              2.41888432650478E-17
 [a.u.] -> [fs]                                             2.41888432650478E-02
 [a.u.] -> [J]                                              4.35974393937059E-18
 [a.u.] -> [N]                                              8.23872205491840E-08
 [a.u.] -> [K]                                              3.15774647902944E+05
 [a.u.] -> [kJ/mol]                                         2.62549961709828E+03
 [a.u.] -> [kcal/mol]                                       6.27509468713739E+02
 [a.u.] -> [Pa]                                             2.94210107994716E+13
 [a.u.] -> [bar]                                            2.94210107994716E+08
 [a.u.] -> [atm]                                            2.90362800883016E+08
 [a.u.] -> [eV]                                             2.72113838565563E+01
 [a.u.] -> [Hz]                                             6.57968392072181E+15
 [a.u.] -> [1/cm] (wave numbers)                            2.19474631370540E+05
 [a.u./Bohr**2] -> [1/cm]                                   5.14048714338585E+03
 

 CELL_TOP| Volume [angstrom^3]:                                       344.707437
 CELL_TOP| Vector a [angstrom     7.012     0.000     0.000   |a| =     7.011596
 CELL_TOP| Vector b [angstrom     0.000     7.012     0.000   |b| =     7.011596
 CELL_TOP| Vector c [angstrom     0.000     0.000     7.012   |c| =     7.011596
 CELL_TOP| Angle (b,c), alpha [degree]:                                90.000000
 CELL_TOP| Angle (a,c), beta  [degree]:                                90.000000
 CELL_TOP| Angle (a,b), gamma [degree]:                                90.000000
 CELL_TOP| Numerically orthorhombic:                                         YES
 CELL_TOP| Periodicity                                                       XYZ

 CELL_UC| Volume [angstrom^3]:                                         43.088430
 CELL_UC| Vector a [angstrom]     3.506     0.000     0.000   |a| =     3.505798
 CELL_UC| Vector b [angstrom]     0.000     3.506     0.000   |b| =     3.505798
 CELL_UC| Vector c [angstrom]     0.000     0.000     3.506   |c| =     3.505798
 CELL_UC| Angle (b,c), alpha [degree]:                                 90.000000
 CELL_UC| Angle (a,c), beta  [degree]:                                 90.000000
 CELL_UC| Angle (a,b), gamma [degree]:                                 90.000000
 CELL_UC| Numerically orthorhombic:                                          YES
 CELL_UC| Periodicity                                                        XYZ

 GENERATE|  Preliminary Number of Bonds generated:                             0
 GENERATE|  Achieved consistency in connectivity generation.

 CELL| Volume [angstrom^3]:                                           344.707437
 CELL| Vector a [angstrom]:       7.012     0.000     0.000   |a| =     7.011596
 CELL| Vector b [angstrom]:       0.000     7.012     0.000   |b| =     7.011596
 CELL| Vector c [angstrom]:       0.000     0.000     7.012   |c| =     7.011596
 CELL| Angle (b,c), alpha [degree]:                                    90.000000
 CELL| Angle (a,c), beta  [degree]:                                    90.000000
 CELL| Angle (a,b), gamma [degree]:                                    90.000000
 CELL| Numerically orthorhombic:                                             YES
 CELL| Periodicity                                                           XYZ

 CELL_REF| Volume [angstrom^3]:                                       344.707437
 CELL_REF| Vector a [angstrom     7.012     0.000     0.000   |a| =     7.011596
 CELL_REF| Vector b [angstrom     0.000     7.012     0.000   |b| =     7.011596
 CELL_REF| Vector c [angstrom     0.000     0.000     7.012   |c| =     7.011596
 CELL_REF| Angle (b,c), alpha [degree]:                                90.000000
 CELL_REF| Angle (a,c), beta  [degree]:                                90.000000
 CELL_REF| Angle (a,b), gamma [degree]:                                90.000000
 CELL_REF| Numerically orthorhombic:                                         YES
 CELL_REF| Periodicity                                                       XYZ

 *******************************************************************************
 *******************************************************************************
 **                                                                           **
 **     #####                         ##              ##                      **
 **    ##   ##            ##          ##              ##                      **
 **   ##     ##                       ##            ######                    **
 **   ##     ##  ##   ##  ##   #####  ##  ##   ####   ##    #####    #####    **
 **   ##     ##  ##   ##  ##  ##      ## ##   ##      ##   ##   ##  ##   ##   **
 **   ##  ## ##  ##   ##  ##  ##      ####     ###    ##   ######   ######    **
 **    ##  ###   ##   ##  ##  ##      ## ##      ##   ##   ##       ##        **
 **     #######   #####   ##   #####  ##  ##  ####    ##    #####   ##        **
 **           ##                                                    ##        **
 **                                                                           **
 **                                                ... make the atoms dance   **
 **                                                                           **
 **            Copyright (C) by CP2K developers group (2000-2022)             **
 **                      J. Chem. Phys. 152, 194103 (2020)                    **
 **                                                                           **
 *******************************************************************************

 DFT| Spin unrestricted (spin-polarized) Kohn-Sham calculation               UKS
 DFT| Multiplicity                                                            65
 DFT| Number of spin states                                                    2
 DFT| Charge                                                                   0
 DFT| Self-interaction correction (SIC)                                       NO
 DFT| Cutoffs: density                                              1.000000E-10
 DFT|          gradient                                             1.000000E-10
 DFT|          tau                                                  1.000000E-10
 DFT|          cutoff_smoothing_range                               0.000000E+00
 DFT| XC density smoothing                                                  NONE
 DFT| XC derivatives                                                          PW

 FUNCTIONAL| PBE:
 FUNCTIONAL| J.P.Perdew, K.Burke, M.Ernzerhof, Phys. Rev. Letter, vol. 77, n 18,
 FUNCTIONAL|  pp. 3865-3868, (1996){spin polarized}                             


 QS| Method:                                                                 GPW
 QS| Density plane wave grid type                        NON-SPHERICAL FULLSPACE
 QS| Number of grid levels:                                                    5
 QS| Density cutoff [a.u.]:                                                300.0
 QS| Multi grid cutoff [a.u.]: 1) grid level                               300.0
 QS|                           2) grid level                               100.0
 QS|                           3) grid level                                33.3
 QS|                           4) grid level                                11.1
 QS|                           5) grid level                                 3.7
 QS| Grid level progression factor:                                          3.0
 QS| Relative density cutoff [a.u.]:                                        30.0
 QS| Interaction thresholds: eps_pgf_orb:                                1.0E-06
 QS|                         eps_filter_matrix:                          0.0E+00
 QS|                         eps_core_charge:                            1.0E-14
 QS|                         eps_rho_gspace:                             1.0E-12
 QS|                         eps_rho_rspace:                             1.0E-12
 QS|                         eps_gvg_rspace:                             1.0E-06
 QS|                         eps_ppl:                                    1.0E-02
 QS|                         eps_ppnl:                                   1.0E-08


 ATOMIC KIND INFORMATION

  1. Atomic kind: Ni                                    Number of atoms:      32

     Orbital Basis Set                                        DZVP-MOLOPT-SR-GTH

       Number of orbital shell sets:                                           1
       Number of orbital shells:                                               8
       Number of primitive Cartesian functions:                                6
       Number of Cartesian basis functions:                                   31
       Number of spherical basis functions:                                   26
       Norm type:                                                              2

       Normalised Cartesian orbitals:

                        Set   Shell   Orbital            Exponent    Coefficient

                          1       1    2s               10.077428      -0.684558
                                                         5.847736      -0.844524
                                                         2.494033       1.088856
                                                         0.988355       0.395503
                                                         0.344978       0.010224
                                                         0.099466      -0.003250

                          1       2    3s               10.077428       0.096747
                                                         5.847736       0.162504
                                                         2.494033      -0.297192
                                                         0.988355      -0.319752
                                                         0.344978       0.088318
                                                         0.099466       0.118587

                          1       3    4s               10.077428       0.036437
                                                         5.847736      -0.381480
                                                         2.494033       0.003759
                                                         0.988355      -1.048256
                                                         0.344978       0.855825
                                                         0.099466      -0.176350

                          1       4    3px              10.077428      -3.133913
                                                         5.847736       3.027656
                                                         2.494033       2.353227
                                                         0.988355       0.554184
                                                         0.344978       0.019462
                                                         0.099466      -0.000291
                          1       4    3py              10.077428      -3.133913
                                                         5.847736       3.027656
                                                         2.494033       2.353227
                                                         0.988355       0.554184
                                                         0.344978       0.019462
                                                         0.099466      -0.000291
                          1       4    3pz              10.077428      -3.133913
                                                         5.847736       3.027656
                                                         2.494033       2.353227
                                                         0.988355       0.554184
                                                         0.344978       0.019462
                                                         0.099466      -0.000291

                          1       5    4px              10.077428      -0.112729
                                                         5.847736      -0.114008
                                                         2.494033      -0.347303
                                                         0.988355      -0.110323
                                                         0.344978       0.154096
                                                         0.099466       0.058386
                          1       5    4py              10.077428      -0.112729
                                                         5.847736      -0.114008
                                                         2.494033      -0.347303
                                                         0.988355      -0.110323
                                                         0.344978       0.154096
                                                         0.099466       0.058386
                          1       5    4pz              10.077428      -0.112729
                                                         5.847736      -0.114008
                                                         2.494033      -0.347303
                                                         0.988355      -0.110323
                                                         0.344978       0.154096
                                                         0.099466       0.058386

                          1       6    4dx2             10.077428       8.232726
                                                         5.847736       9.105758
                                                         2.494033       2.849835
                                                         0.988355       0.554319
                                                         0.344978       0.067245
                                                         0.099466       0.001940
                          1       6    4dxy             10.077428      14.259500
                                                         5.847736      15.771636
                                                         2.494033       4.936060
                                                         0.988355       0.960109
                                                         0.344978       0.116472
                                                         0.099466       0.003360
                          1       6    4dxz             10.077428      14.259500
                                                         5.847736      15.771636
                                                         2.494033       4.936060
                                                         0.988355       0.960109
                                                         0.344978       0.116472
                                                         0.099466       0.003360
                          1       6    4dy2             10.077428       8.232726
                                                         5.847736       9.105758
                                                         2.494033       2.849835
                                                         0.988355       0.554319
                                                         0.344978       0.067245
                                                         0.099466       0.001940
                          1       6    4dyz             10.077428      14.259500
                                                         5.847736      15.771636
                                                         2.494033       4.936060
                                                         0.988355       0.960109
                                                         0.344978       0.116472
                                                         0.099466       0.003360
                          1       6    4dz2             10.077428       8.232726
                                                         5.847736       9.105758
                                                         2.494033       2.849835
                                                         0.988355       0.554319
                                                         0.344978       0.067245
                                                         0.099466       0.001940

                          1       7    5dx2             10.077428      -2.715373
                                                         5.847736      -4.020640
                                                         2.494033      -1.397569
                                                         0.988355      -0.076143
                                                         0.344978       0.033435
                                                         0.099466       0.026032
                          1       7    5dxy             10.077428      -4.703164
                                                         5.847736      -6.963952
                                                         2.494033      -2.420661
                                                         0.988355      -0.131883
                                                         0.344978       0.057911
                                                         0.099466       0.045088
                          1       7    5dxz             10.077428      -4.703164
                                                         5.847736      -6.963952
                                                         2.494033      -2.420661
                                                         0.988355      -0.131883
                                                         0.344978       0.057911
                                                         0.099466       0.045088
                          1       7    5dy2             10.077428      -2.715373
                                                         5.847736      -4.020640
                                                         2.494033      -1.397569
                                                         0.988355      -0.076143
                                                         0.344978       0.033435
                                                         0.099466       0.026032
                          1       7    5dyz             10.077428      -4.703164
                                                         5.847736      -6.963952
                                                         2.494033      -2.420661
                                                         0.988355      -0.131883
                                                         0.344978       0.057911
                                                         0.099466       0.045088
                          1       7    5dz2             10.077428      -2.715373
                                                         5.847736      -4.020640
                                                         2.494033      -1.397569
                                                         0.988355      -0.076143
                                                         0.344978       0.033435
                                                         0.099466       0.026032

                          1       8    5fx3             10.077428      -0.467694
                                                         5.847736       0.618100
                                                         2.494033       0.066069
                                                         0.988355       0.262898
                                                         0.344978       0.004720
                                                         0.099466       0.007748
                          1       8    5fx2y            10.077428      -1.045795
                                                         5.847736       1.382114
                                                         2.494033       0.147734
                                                         0.988355       0.587859
                                                         0.344978       0.010555
                                                         0.099466       0.017325
                          1       8    5fx2z            10.077428      -1.045795
                                                         5.847736       1.382114
                                                         2.494033       0.147734
                                                         0.988355       0.587859
                                                         0.344978       0.010555
                                                         0.099466       0.017325
                          1       8    5fxy2            10.077428      -1.045795
                                                         5.847736       1.382114
                                                         2.494033       0.147734
                                                         0.988355       0.587859
                                                         0.344978       0.010555
                                                         0.099466       0.017325
                          1       8    5fxyz            10.077428      -1.811371
                                                         5.847736       2.393892
                                                         2.494033       0.255883
                                                         0.988355       1.018201
                                                         0.344978       0.018282
                                                         0.099466       0.030008
                          1       8    5fxz2            10.077428      -1.045795
                                                         5.847736       1.382114
                                                         2.494033       0.147734
                                                         0.988355       0.587859
                                                         0.344978       0.010555
                                                         0.099466       0.017325
                          1       8    5fy3             10.077428      -0.467694
                                                         5.847736       0.618100
                                                         2.494033       0.066069
                                                         0.988355       0.262898
                                                         0.344978       0.004720
                                                         0.099466       0.007748
                          1       8    5fy2z            10.077428      -1.045795
                                                         5.847736       1.382114
                                                         2.494033       0.147734
                                                         0.988355       0.587859
                                                         0.344978       0.010555
                                                         0.099466       0.017325
                          1       8    5fyz2            10.077428      -1.045795
                                                         5.847736       1.382114
                                                         2.494033       0.147734
                                                         0.988355       0.587859
                                                         0.344978       0.010555
                                                         0.099466       0.017325
                          1       8    5fz3             10.077428      -0.467694
                                                         5.847736       0.618100
                                                         2.494033       0.066069
                                                         0.988355       0.262898
                                                         0.344978       0.004720
                                                         0.099466       0.007748

       Atomic covalent radius [Angstrom]:                                  1.150

       Atomic van der Waals radius [Angstrom]:                             1.630

     GTH Potential information for                                   GTH-PBE-q18

       Description:                       Goedecker-Teter-Hutter pseudopotential
                                           Goedecker et al., PRB 54, 1703 (1996)
                                          Hartwigsen et al., PRB 58, 3641 (1998)
                                                      Krack, TCA 114, 145 (2005)

       Gaussian exponent of the core charge distribution:               4.081633
       Electronic configuration (s p d ...):                           4   6   8

       Parameters of the local part of the GTH pseudopotential:

                          rloc        C1          C2          C3          C4
                        0.350000    2.102166    0.648484

       Parameters of the non-local part of the GTH pseudopotential:

                   l      r(l)      h(i,j,l)

                   0    0.261295    0.622658    9.970227
                                    9.970227  -12.871507
                   1    0.224253  -11.142708   12.429566
                                   12.429566  -14.706861
                   2    0.215348  -12.628146


 MOLECULE KIND INFORMATION


 All atoms are their own molecule, skipping detailed information


 TOTAL NUMBERS AND MAXIMUM NUMBERS

  Total number of            - Atomic kinds:                                   1
                             - Atoms:                                         32
                             - Shell sets:                                    32
                             - Shells:                                       256
                             - Primitive Cartesian functions:                192
                             - Cartesian basis functions:                    992
                             - Spherical basis functions:                    832

  Maximum angular momentum of- Orbital basis functions:                        3
                             - Local part of the GTH pseudopotential:          2
                             - Non-local part of the GTH pseudopotential:      3


 MODULE QUICKSTEP: ATOMIC COORDINATES IN ANGSTROM

   Atom Kind Element         X             Y             Z       Z(eff)     Mass
      1    1 Ni   28      0.000000      0.000000      0.000000  18.0000  58.6934
      2    1 Ni   28      0.000000      1.752900      1.752900  18.0000  58.6934
      3    1 Ni   28      1.752900      0.000000      1.752900  18.0000  58.6934
      4    1 Ni   28      1.752900      1.752900      0.000000  18.0000  58.6934
      5    1 Ni   28      3.505798      0.000000      0.000000  18.0000  58.6934
      6    1 Ni   28      3.505798      1.752900      1.752900  18.0000  58.6934
      7    1 Ni   28      5.258698      0.000000      1.752900  18.0000  58.6934
      8    1 Ni   28      5.258698      1.752900      0.000000  18.0000  58.6934
      9    1 Ni   28      0.000000      3.505798      0.000000  18.0000  58.6934
     10    1 Ni   28      0.000000      5.258698      1.752900  18.0000  58.6934
     11    1 Ni   28      1.752900      3.505798      1.752900  18.0000  58.6934
     12    1 Ni   28      1.752900      5.258698      0.000000  18.0000  58.6934
     13    1 Ni   28      3.505798      3.505798      0.000000  18.0000  58.6934
     14    1 Ni   28      3.505798      5.258698      1.752900  18.0000  58.6934
     15    1 Ni   28      5.258698      3.505798      1.752900  18.0000  58.6934
     16    1 Ni   28      5.258698      5.258698      0.000000  18.0000  58.6934
     17    1 Ni   28      0.000000      0.000000      3.505798  18.0000  58.6934
     18    1 Ni   28      0.000000      1.752900      5.258698  18.0000  58.6934
     19    1 Ni   28      1.752900      0.000000      5.258698  18.0000  58.6934
     20    1 Ni   28      1.752900      1.752900      3.505798  18.0000  58.6934
     21    1 Ni   28      3.505798      0.000000      3.505798  18.0000  58.6934
     22    1 Ni   28      3.505798      1.752900      5.258698  18.0000  58.6934
     23    1 Ni   28      5.258698      0.000000      5.258698  18.0000  58.6934
     24    1 Ni   28      5.258698      1.752900      3.505798  18.0000  58.6934
     25    1 Ni   28      0.000000      3.505798      3.505798  18.0000  58.6934
     26    1 Ni   28      0.000000      5.258698      5.258698  18.0000  58.6934
     27    1 Ni   28      1.752900      3.505798      5.258698  18.0000  58.6934
     28    1 Ni   28      1.752900      5.258698      3.505798  18.0000  58.6934
     29    1 Ni   28      3.505798      3.505798      3.505798  18.0000  58.6934
     30    1 Ni   28      3.505798      5.258698      5.258698  18.0000  58.6934
     31    1 Ni   28      5.258698      3.505798      5.258698  18.0000  58.6934
     32    1 Ni   28      5.258698      5.258698      3.505798  18.0000  58.6934



 SCF PARAMETERS         Density guess:                                    ATOMIC
                        --------------------------------------------------------
                        max_scf:                                             500
                        max_scf_history:                                       0
                        max_diis:                                              4
                        --------------------------------------------------------
                        eps_scf:                                        1.00E-08
                        eps_scf_history:                                0.00E+00
                        eps_diis:                                       1.00E-01
                        eps_eigval:                                     1.00E-05
                        --------------------------------------------------------
                        level_shift [a.u.]:                             0.000000
                        added MOs                                        30   30
                        --------------------------------------------------------
                        Mixing method:                            BROYDEN_MIXING
                                                charge density mixing in g-space
                        --------------------------------------------------------
                        Smear method:                                FERMI_DIRAC
                        Electronic temperature [K]:                        300.0
                        Electronic temperature [a.u.]:                  9.50E-04
                        Accuracy threshold:                             1.00E-10
                        --------------------------------------------------------
                        No outer SCF

 PW_GRID| Information for grid number                                          1
 PW_GRID| Grid distributed over                                   128 processors
 PW_GRID| Real space group dimensions                                     8   16
 PW_GRID| the grid is blocked:                                               YES
 PW_GRID| Cutoff [a.u.]                                                    300.0
 PW_GRID| spherical cutoff:                                                   NO
 PW_GRID|   Bounds   1            -54      53                Points:         108
 PW_GRID|   Bounds   2            -54      53                Points:         108
 PW_GRID|   Bounds   3            -54      53                Points:         108
 PW_GRID| Volume element (a.u.^3)  0.1847E-02     Volume (a.u.^3)      2326.2011
 PW_GRID| Grid span                                                    FULLSPACE
 PW_GRID|   Distribution                         Average         Max         Min
 PW_GRID|   G-Vectors                             9841.5       10584        8424
 PW_GRID|   G-Rays                                  91.1          98          78
 PW_GRID|   Real Space Points                     9841.5       10584        8424

 PW_GRID| Information for grid number                                          2
 PW_GRID| Number of the reference grid                                         1
 PW_GRID| Grid distributed over                                   128 processors
 PW_GRID| Real space group dimensions                                     8   16
 PW_GRID| the grid is blocked:                                                NO
 PW_GRID| Cutoff [a.u.]                                                    100.0
 PW_GRID| spherical cutoff:                                                   NO
 PW_GRID|   Bounds   1            -30      29                Points:          60
 PW_GRID|   Bounds   2            -30      29                Points:          60
 PW_GRID|   Bounds   3            -30      29                Points:          60
 PW_GRID| Volume element (a.u.^3)  0.1077E-01     Volume (a.u.^3)      2326.2011
 PW_GRID| Grid span                                                    FULLSPACE
 PW_GRID|   Distribution                         Average         Max         Min
 PW_GRID|   G-Vectors                             1687.5        5880           0
 PW_GRID|   G-Rays                                  28.1          98           0
 PW_GRID|   Real Space Points                     1687.5        1920        1260

 PW_GRID| Information for grid number                                          3
 PW_GRID| Number of the reference grid                                         1
 PW_GRID| Grid distributed over                                   128 processors
 PW_GRID| Real space group dimensions                                     8   16
 PW_GRID| the grid is blocked:                                                NO
 PW_GRID| Cutoff [a.u.]                                                     33.3
 PW_GRID| spherical cutoff:                                                   NO
 PW_GRID|   Bounds   1            -18      17                Points:          36
 PW_GRID|   Bounds   2            -18      17                Points:          36
 PW_GRID|   Bounds   3            -18      17                Points:          36
 PW_GRID| Volume element (a.u.^3)  0.4986E-01     Volume (a.u.^3)      2326.2011
 PW_GRID| Grid span                                                    FULLSPACE
 PW_GRID|   Distribution                         Average         Max         Min
 PW_GRID|   G-Vectors                              364.5        3528           0
 PW_GRID|   G-Rays                                  10.1          98           0
 PW_GRID|   Real Space Points                      364.5         540         288

 PW_GRID| Information for grid number                                          4
 PW_GRID| Number of the reference grid                                         1
 PW_GRID| Grid distributed over                                   128 processors
 PW_GRID| Real space group dimensions                                     8   16
 PW_GRID| the grid is blocked:                                                NO
 PW_GRID| Cutoff [a.u.]                                                     11.1
 PW_GRID| spherical cutoff:                                                   NO
 PW_GRID|   Bounds   1            -10       9                Points:          20
 PW_GRID|   Bounds   2            -10       9                Points:          20
 PW_GRID|   Bounds   3            -10       9                Points:          20
 PW_GRID| Volume element (a.u.^3)  0.2908         Volume (a.u.^3)      2326.2011
 PW_GRID| Grid span                                                    FULLSPACE
 PW_GRID|   Distribution                         Average         Max         Min
 PW_GRID|   G-Vectors                               62.5        1400           0
 PW_GRID|   G-Rays                                   3.1          70           0
 PW_GRID|   Real Space Points                       62.5         120          40

 PW_GRID| Information for grid number                                          5
 PW_GRID| Number of the reference grid                                         1
 PW_GRID| Grid distributed over                                   128 processors
 PW_GRID| Real space group dimensions                                     8   16
 PW_GRID| the grid is blocked:                                                NO
 PW_GRID| Cutoff [a.u.]                                                      3.7
 PW_GRID| spherical cutoff:                                                   NO
 PW_GRID|   Bounds   1             -6       5                Points:          12
 PW_GRID|   Bounds   2             -6       5                Points:          12
 PW_GRID|   Bounds   3             -6       5                Points:          12
 PW_GRID| Volume element (a.u.^3)   1.346         Volume (a.u.^3)      2326.2011
 PW_GRID| Grid span                                                    FULLSPACE
 PW_GRID|   Distribution                         Average         Max         Min
 PW_GRID|   G-Vectors                               13.5         432           0
 PW_GRID|   G-Rays                                   1.1          36           0
 PW_GRID|   Real Space Points                       13.5          24           0

 POISSON| Solver                                                        PERIODIC
 POISSON| Periodicity                                                        XYZ

 RS_GRID| Information for grid number                                          1
 RS_GRID|   Bounds   1            -54      53                Points:         108
 RS_GRID|   Bounds   2            -54      53                Points:         108
 RS_GRID|   Bounds   3            -54      53                Points:         108
 RS_GRID| Real space distribution over                                  8 groups
 RS_GRID| Real space distribution along direction                              2
 RS_GRID| Border size                                                         28
 RS_GRID| Real space distribution over                                 16 groups
 RS_GRID| Real space distribution along direction                              3
 RS_GRID| Border size                                                         28
 RS_GRID|   Distribution                         Average         Max         Min
 RS_GRID|   Planes                                  69.5          70          69
 RS_GRID|   Distribution                         Average         Max         Min
 RS_GRID|   Planes                                  62.8          63          62

 RS_GRID| Information for grid number                                          2
 RS_GRID|   Bounds   1            -30      29                Points:          60
 RS_GRID|   Bounds   2            -30      29                Points:          60
 RS_GRID|   Bounds   3            -30      29                Points:          60
 RS_GRID| Real space fully replicated
 RS_GRID| Group size                                                           1

 RS_GRID| Information for grid number                                          3
 RS_GRID|   Bounds   1            -18      17                Points:          36
 RS_GRID|   Bounds   2            -18      17                Points:          36
 RS_GRID|   Bounds   3            -18      17                Points:          36
 RS_GRID| Real space fully replicated
 RS_GRID| Group size                                                           1

 RS_GRID| Information for grid number                                          4
 RS_GRID|   Bounds   1            -10       9                Points:          20
 RS_GRID|   Bounds   2            -10       9                Points:          20
 RS_GRID|   Bounds   3            -10       9                Points:          20
 RS_GRID| Real space fully replicated
 RS_GRID| Group size                                                           1

 RS_GRID| Information for grid number                                          5
 RS_GRID|   Bounds   1             -6       5                Points:          12
 RS_GRID|   Bounds   2             -6       5                Points:          12
 RS_GRID|   Bounds   3             -6       5                Points:          12
 RS_GRID| Real space fully replicated
 RS_GRID| Group size                                                           1

 Spin 1

 Number of electrons:                                                        320
 Number of occupied orbitals:                                                320
 Number of molecular orbitals:                                               350

 Spin 2

 Number of electrons:                                                        256
 Number of occupied orbitals:                                                256
 Number of molecular orbitals:                                               286

 Number of orbital functions:                                                832
 Number of independent orbital functions:                                    832

 Extrapolation method: initial_guess

 Atomic guess: The first density matrix is obtained in terms of atomic orbitals
               and electronic configurations assigned to each atomic kind

 Guess for atomic kind: Ni

 Electronic structure
    Total number of core electrons                                         10.00
    Total number of valence electrons                                      18.00
    Total number of electrons                                              28.00
    Multiplicity                                                         triplet
    Alpha Electrons
    S   [  1.00  1.00] 1.00  1.00
    P   [  3.00] 3.00
    D      5.00
    Beta Electrons
    S   [  1.00  1.00] 1.00  1.00
    P   [  3.00] 3.00
    D      3.00


 *******************************************************************************
                  Iteration          Convergence                     Energy [au]
 *******************************************************************************
                          1         1.61955                    -167.102733612646
                          2         17.9576                    -156.964728082342
                          3         2.81889                    -168.347679739779
                          4        0.300879                    -168.639029543130
                          5        0.133614                    -168.643718125190
                          6        0.642384E-01                -168.645928334381
                          7        0.411618E-01                -168.646613747745
                          8        0.978516E-02                -168.646711132537
                          9        0.508781E-01                -168.646571314898
                         10        0.138948E-01                -168.646700563277
                         11        0.138660E-01                -168.646700237384
                         12        0.629414E-02                -168.646712261956
                         13        0.566241E-02                -168.646713151996
                         14        0.495313E-02                -168.646714117454
                         15        0.421991E-02                -168.646714987798
                         16        0.338228E-02                -168.646715812720
                         17        0.416465E-02                -168.646716816326
                         18        0.344616E-02                -168.646717043212
                         19        0.330991E-02                -168.646717101846
                         20        0.313342E-02                -168.646717172930
                         21        0.281829E-02                -168.646717286496
                         22        0.848656E-03                -168.646717732580
                         23        0.109512E-02                -168.646717723740
                         24        0.104995E-02                -168.646717732012
                         25        0.102855E-02                -168.646717736906
                         26        0.100245E-02                -168.646717743176
                         27        0.676032E-03                -168.646717806927
                         28        0.602106E-03                -168.646717861030
                         29        0.625282E-03                -168.646717860099
                         30        0.624945E-03                -168.646717860052
                         31        0.623853E-03                -168.646717860100
                         32        0.624150E-03                -168.646717860067
                         33        0.237289E-03                -168.646717879062
                         34        0.180801E-03                -168.646717882280
                         35        0.181452E-03                -168.646717882256
                         36        0.181661E-03                -168.646717882245
                         37        0.181696E-03                -168.646717882243
                         38        0.180660E-03                -168.646717882285
                         39        0.167278E-03                -168.646717884960
                         40        0.108251E-03                -168.646717886084
                         41        0.108355E-03                -168.646717886083
                         42        0.108427E-03                -168.646717886083
                         43        0.108486E-03                -168.646717886083
                         44        0.108485E-03                -168.646717886083
                         45        0.694677E-04                -168.646717886478
                         46        0.318666E-04                -168.646717886752
                         47        0.318508E-04                -168.646717886753
                         48        0.318379E-04                -168.646717886753
                         49        0.318252E-04                -168.646717886753
                         50        0.320703E-04                -168.646717886751
 No convergence within maximum number of iterations 

 Energy components [Hartree]           Total Energy ::         -168.646717886751
                                        Band Energy ::          -26.584923955507
                                     Kinetic Energy ::           97.352330251814
                                   Potential Energy ::         -265.999048138565
                                      Virial (-V/T) ::            2.732333652934
                                        Core Energy ::         -299.595021414610
                                          XC Energy ::          -16.265210292971
                                     Coulomb Energy ::          147.213513820830
                       Total Pseudopotential Energy ::         -397.033695283644
                       Local Pseudopotential Energy ::         -362.697061997994
                    Nonlocal Pseudopotential Energy ::          -34.336633285650
                                        Confinement ::            0.863436172188

 Orbital energies  State     Spin  L     Occupation   Energy[a.u.]    Energy[eV]

                       1    alpha  0          1.000      -4.198782   -114.254674
                       2    alpha  0          1.000      -0.185813     -5.056229
                       1     beta  0          1.000      -4.107299   -111.765292
                       2     beta  0          1.000      -0.171331     -4.662162

                       1    alpha  1          3.000      -2.604156    -70.862688
                       1     beta  1          3.000      -2.515143    -68.440529

                       1    alpha  2          5.000      -0.348813     -9.491687
                       1     beta  2          3.000      -0.273245     -7.435375


 Total Electron Density at R=0:                                         0.030313

 Spin 1
 Re-scaling the density matrix to get the right number of electrons for spin 1
                  # Electrons              Trace(P)               Scaling factor
                          320               320.032                        1.000

 Spin 2
 Re-scaling the density matrix to get the right number of electrons for spin 2
                  # Electrons              Trace(P)               Scaling factor
                          256               256.035                        1.000


 SCF WAVEFUNCTION OPTIMIZATION

  Step     Update method      Time    Convergence         Total energy    Change
  ------------------------------------------------------------------------------
     1 NoMix/Diag. 0.40E-01    0.6     0.80642385     -5430.5035547420 -5.43E+03
     2 Broy./Diag. 0.40E-01    0.5     0.01739110     -5362.3241888515  6.82E+01
     3 Broy./Diag. 0.40E-01    0.6     0.02925129     -5381.9050773767 -1.96E+01
     4 Broy./Diag. 0.40E-01    0.5     0.14848882     -5411.5167918773 -2.96E+01
     5 Broy./Diag. 0.40E-01    0.5     0.11983450     -5432.9832452121 -2.15E+01
     6 Broy./Diag. 0.40E-01    0.5     0.08524229     -5418.5927701128  1.44E+01
     7 Broy./Diag. 0.40E-01    0.5     0.03633269     -5415.3004088021  3.29E+00
     8 Broy./Diag. 0.40E-01    0.5     0.00568930     -5409.8666023527  5.43E+00
     9 Broy./Diag. 0.40E-01    0.5     0.00810753     -5414.3436423156 -4.48E+00
    10 Broy./Diag. 0.40E-01    0.5     0.01183389     -5411.8427472367  2.50E+00
    11 Broy./Diag. 0.40E-01    0.6     0.02773431     -5411.9881906561 -1.45E-01
    12 Broy./Diag. 0.40E-01    0.5     0.01571180     -5413.3451629900 -1.36E+00
    13 Broy./Diag. 0.40E-01    0.5     0.01679429     -5412.2828443943  1.06E+00
    14 Broy./Diag. 0.40E-01    0.5     0.05218351     -5410.3913969492  1.89E+00
    15 Broy./Diag. 0.40E-01    0.5     0.00966302     -5409.9196540086  4.72E-01
    16 Broy./Diag. 0.40E-01    0.5     0.00419362     -5412.1064935573 -2.19E+00
    17 Broy./Diag. 0.40E-01    0.5     0.00705474     -5413.6942975258 -1.59E+00
    18 Broy./Diag. 0.40E-01    0.5     0.00908937     -5412.6465380550  1.05E+00
    19 Broy./Diag. 0.40E-01    0.5     0.00671314     -5416.0693202535 -3.42E+00
    20 Broy./Diag. 0.40E-01    0.5     0.00706794     -5418.9760847270 -2.91E+00
    21 Broy./Diag. 0.40E-01    0.5     0.00130043     -5421.6199201263 -2.64E+00
    22 Broy./Diag. 0.40E-01    0.5     0.00299466     -5422.0320372580 -4.12E-01
    23 Broy./Diag. 0.40E-01    0.5     0.00491366     -5423.3859483836 -1.35E+00
    24 Broy./Diag. 0.40E-01    0.5     0.00140349     -5426.0158463348 -2.63E+00
    25 Broy./Diag. 0.40E-01    0.5     0.00164098     -5426.5887177258 -5.73E-01
    26 Broy./Diag. 0.40E-01    0.5     0.00449832     -5425.7766135206  8.12E-01
    27 Broy./Diag. 0.40E-01    0.5     0.00236017     -5422.1938685665  3.58E+00
    28 Broy./Diag. 0.40E-01    0.5     0.00369758     -5421.0741032344  1.12E+00
    29 Broy./Diag. 0.40E-01    0.6     0.01019204     -5419.5981869916  1.48E+00
    30 Broy./Diag. 0.40E-01    0.5     0.01694584     -5416.7065300897  2.89E+00
    31 Broy./Diag. 0.40E-01    0.5     0.00761344     -5422.8123039211 -6.11E+00
    32 Broy./Diag. 0.40E-01    0.5     0.00177103     -5420.1982408579  2.61E+00
    33 Broy./Diag. 0.40E-01    0.5     0.00573824     -5419.8784740879  3.20E-01
    34 Broy./Diag. 0.40E-01    0.5     0.00563283     -5417.8639166659  2.01E+00
    35 Broy./Diag. 0.40E-01    0.5     0.00964205     -5418.4608607428 -5.97E-01
    36 Broy./Diag. 0.40E-01    0.5     0.00585124     -5416.4462065160  2.01E+00
    37 Broy./Diag. 0.40E-01    0.5     0.00164684     -5418.8103142468 -2.36E+00
    38 Broy./Diag. 0.40E-01    0.5     0.00081886     -5418.3756545302  4.35E-01
    39 Broy./Diag. 0.40E-01    0.5     0.00080481     -5417.9708228580  4.05E-01
    40 Broy./Diag. 0.40E-01    0.5     0.00257349     -5417.7402813953  2.31E-01
    41 Broy./Diag. 0.40E-01    0.5     0.00788360     -5418.0162063986 -2.76E-01
    42 Broy./Diag. 0.40E-01    0.5     0.00343192     -5418.7359138961 -7.20E-01
    43 Broy./Diag. 0.40E-01    0.5     0.00107071     -5418.4303894636  3.06E-01
    44 Broy./Diag. 0.40E-01    0.5     0.00613819     -5418.2619472980  1.68E-01
    45 Broy./Diag. 0.40E-01    0.5     0.00608645     -5418.6299024615 -3.68E-01
    46 Broy./Diag. 0.40E-01    0.5     0.00806702     -5418.0976167377  5.32E-01
    47 Broy./Diag. 0.40E-01    0.6     0.01141903     -5417.5064631046  5.91E-01
    48 Broy./Diag. 0.40E-01    0.5     0.01059515     -5416.1643781088  1.34E+00
    49 Broy./Diag. 0.40E-01    0.5     0.00404108     -5414.4746331782  1.69E+00
    50 Broy./Diag. 0.40E-01    0.5     0.01804494     -5413.8109664428  6.64E-01
    51 Broy./Diag. 0.40E-01    0.5     0.04408898     -5412.7250241588  1.09E+00
    52 Broy./Diag. 0.40E-01    0.5     0.02879111     -5413.7819476130 -1.06E+00
    53 Broy./Diag. 0.40E-01    0.5     0.00974455     -5412.2165959430  1.57E+00
    54 Broy./Diag. 0.40E-01    0.5     0.02824076     -5412.7741675328 -5.58E-01
    55 Broy./Diag. 0.40E-01    0.5     0.00504601     -5409.8748854927  2.90E+00
    56 Broy./Diag. 0.40E-01    0.5     0.00378816     -5410.5299021023 -6.55E-01
    57 Broy./Diag. 0.40E-01    0.5     0.04983730     -5411.2448084195 -7.15E-01
    58 Broy./Diag. 0.40E-01    0.5     0.01015431     -5412.4421232801 -1.20E+00
    59 Broy./Diag. 0.40E-01    0.5     0.01554082     -5413.2765266478 -8.34E-01
    60 Broy./Diag. 0.40E-01    0.5     0.02198538     -5415.5403345033 -2.26E+00
    61 Broy./Diag. 0.40E-01    0.5     0.02750076     -5415.2930917444  2.47E-01
    62 Broy./Diag. 0.40E-01    0.5     0.03884921     -5419.7410542003 -4.45E+00
    63 Broy./Diag. 0.40E-01    0.5     0.00198797     -5417.2486662011  2.49E+00
    64 Broy./Diag. 0.40E-01    0.5     0.02425344     -5417.0516481690  1.97E-01
    65 Broy./Diag. 0.40E-01    0.5     0.02375059     -5420.4767810597 -3.43E+00
    66 Broy./Diag. 0.40E-01    0.6     0.02187169     -5417.1097400392  3.37E+00
    67 Broy./Diag. 0.40E-01    0.5     0.05179699     -5418.6299206903 -1.52E+00
    68 Broy./Diag. 0.40E-01    0.5     0.03251259     -5414.8326026264  3.80E+00
    69 Broy./Diag. 0.40E-01    0.5     0.02265561     -5409.6756210334  5.16E+00
    70 Broy./Diag. 0.40E-01    0.5     0.00449568     -5411.9514548447 -2.28E+00
    71 Broy./Diag. 0.40E-01    0.5     0.06313016     -5411.8707075309  8.07E-02
    72 Broy./Diag. 0.40E-01    0.5     0.02017892     -5412.7575046457 -8.87E-01
    73 Broy./Diag. 0.40E-01    0.5     0.07985370     -5412.3793701261  3.78E-01
    74 Broy./Diag. 0.40E-01    0.5     0.07561248     -5412.0741722108  3.05E-01
    75 Broy./Diag. 0.40E-01    0.5     0.02139971     -5412.2637591682 -1.90E-01
    76 Broy./Diag. 0.40E-01    0.5     0.03083678     -5419.0522414590 -6.79E+00
    77 Broy./Diag. 0.40E-01    0.5     0.04730312     -5419.8021159708 -7.50E-01
    78 Broy./Diag. 0.40E-01    0.5     0.00270929     -5413.1116942246  6.69E+00
    79 Broy./Diag. 0.40E-01    0.5     0.03593334     -5413.2401334549 -1.28E-01
    80 Broy./Diag. 0.40E-01    0.5     0.03428023     -5409.8494765927  3.39E+00
    81 Broy./Diag. 0.40E-01    0.5     0.02587507     -5414.8875030948 -5.04E+00
    82 Broy./Diag. 0.40E-01    0.5     0.00268372     -5412.7168204462  2.17E+00
    83 Broy./Diag. 0.40E-01    0.5     0.04197066     -5412.6253761203  9.14E-02
    84 Broy./Diag. 0.40E-01    0.6     0.04075718     -5419.8099985612 -7.18E+00
    85 Broy./Diag. 0.40E-01    0.5     0.00762842     -5412.7664981972  7.04E+00
    86 Broy./Diag. 0.40E-01    0.5     0.00431996     -5413.0275456663 -2.61E-01
    87 Broy./Diag. 0.40E-01    0.5     0.00293012     -5413.3636416703 -3.36E-01
    88 Broy./Diag. 0.40E-01    0.5     0.04730530     -5413.6385161831 -2.75E-01
    89 Broy./Diag. 0.40E-01    0.5     0.03041998     -5416.4751059979 -2.84E+00
    90 Broy./Diag. 0.40E-01    0.5     0.02382854     -5415.1073390793  1.37E+00
    91 Broy./Diag. 0.40E-01    0.5     0.00375739     -5411.7225278492  3.38E+00
    92 Broy./Diag. 0.40E-01    0.5     0.00303657     -5410.8286117381  8.94E-01
    93 Broy./Diag. 0.40E-01    0.5     0.03194708     -5410.8103065580  1.83E-02
    94 Broy./Diag. 0.40E-01    0.5     0.02560887     -5418.9704614666 -8.16E+00
    95 Broy./Diag. 0.40E-01    0.5     0.03530202     -5414.9699841522  4.00E+00
    96 Broy./Diag. 0.40E-01    0.5     0.04974741     -5419.7534743803 -4.78E+00
    97 Broy./Diag. 0.40E-01    0.5     0.02767390     -5417.1188208129  2.63E+00
    98 Broy./Diag. 0.40E-01    0.5     0.01400991     -5417.3394454685 -2.21E-01
    99 Broy./Diag. 0.40E-01    0.5     0.02203608     -5418.6610906685 -1.32E+00
   100 Broy./Diag. 0.40E-01    0.5     0.01201934     -5417.9067765496  7.54E-01
   101 Broy./Diag. 0.40E-01    0.5     0.01862999     -5415.6916293380  2.22E+00
   102 Broy./Diag. 0.40E-01    0.6     0.02228885     -5416.9567485063 -1.27E+00
   103 Broy./Diag. 0.40E-01    0.5     0.02338346     -5412.8774276016  4.08E+00
   104 Broy./Diag. 0.40E-01    0.5     0.02371771     -5411.4841367202  1.39E+00
   105 Broy./Diag. 0.40E-01    0.5     0.02600397     -5413.8992060728 -2.42E+00
   106 Broy./Diag. 0.40E-01    0.5     0.00468648     -5410.9903609380  2.91E+00
   107 Broy./Diag. 0.40E-01    0.5     0.00677874     -5410.2831290853  7.07E-01
   108 Broy./Diag. 0.40E-01    0.5     0.04646687     -5411.6535024076 -1.37E+00
   109 Broy./Diag. 0.40E-01    0.5     0.02193359     -5419.7919618537 -8.14E+00
   110 Broy./Diag. 0.40E-01    0.5     0.01036259     -5416.2252256937  3.57E+00
   111 Broy./Diag. 0.40E-01    0.5     0.01087537     -5413.4796378044  2.75E+00
   112 Broy./Diag. 0.40E-01    0.5     0.01261135     -5415.2187938874 -1.74E+00
   113 Broy./Diag. 0.40E-01    0.5     0.03283208     -5415.2138805351  4.91E-03
   114 Broy./Diag. 0.40E-01    0.5     0.00690799     -5406.8402253583  8.37E+00
   115 Broy./Diag. 0.40E-01    0.5     0.00981239     -5407.2502859659 -4.10E-01
   116 Broy./Diag. 0.40E-01    0.5     0.01393392     -5408.9779887559 -1.73E+00
   117 Broy./Diag. 0.40E-01    0.5     0.02061917     -5413.1148221973 -4.14E+00
   118 Broy./Diag. 0.40E-01    0.5     0.01189222     -5415.2628591699 -2.15E+00
   119 Broy./Diag. 0.40E-01    0.5     0.00858430     -5416.1066758969 -8.44E-01
   120 Broy./Diag. 0.40E-01    0.5     0.02901448     -5412.7878474283  3.32E+00
   121 Broy./Diag. 0.40E-01    0.5     0.02549099     -5411.1604384908  1.63E+00
   122 Broy./Diag. 0.40E-01    0.5     0.00643313     -5413.2671288052 -2.11E+00
   123 Broy./Diag. 0.40E-01    0.5     0.01059931     -5412.6212583906  6.46E-01
   124 Broy./Diag. 0.40E-01    0.5     0.01875012     -5414.3414628232 -1.72E+00
   125 Broy./Diag. 0.40E-01    0.5     0.03314981     -5413.9619473009  3.80E-01
   126 Broy./Diag. 0.40E-01    0.5     0.04757109     -5416.6241113400 -2.66E+00
   127 Broy./Diag. 0.40E-01    0.5     0.01938851     -5412.3218808854  4.30E+00
   128 Broy./Diag. 0.40E-01    0.5     0.02413616     -5411.2788872274  1.04E+00
   129 Broy./Diag. 0.40E-01    0.5     0.02924317     -5412.6350050552 -1.36E+00
   130 Broy./Diag. 0.40E-01    0.5     0.02858069     -5412.3962481934  2.39E-01
   131 Broy./Diag. 0.40E-01    0.5     0.03465574     -5408.0043977875  4.39E+00
   132 Broy./Diag. 0.40E-01    0.5     0.04339144     -5406.9669994236  1.04E+00
   133 Broy./Diag. 0.40E-01    0.5     0.05105564     -5412.3366251636 -5.37E+00
   134 Broy./Diag. 0.40E-01    0.5     0.01721834     -5414.5107809868 -2.17E+00
   135 Broy./Diag. 0.40E-01    0.5     0.02001312     -5415.5429085644 -1.03E+00
   136 Broy./Diag. 0.40E-01    0.5     0.02023619     -5411.3120871661  4.23E+00
   137 Broy./Diag. 0.40E-01    0.5     0.01785894     -5411.2543738515  5.77E-02
   138 Broy./Diag. 0.40E-01    0.5     0.01407395     -5411.5286478512 -2.74E-01
   139 Broy./Diag. 0.40E-01    0.6     0.02054060     -5411.7079696460 -1.79E-01
   140 Broy./Diag. 0.40E-01    0.5     0.00997351     -5408.2695134115  3.44E+00
   141 Broy./Diag. 0.40E-01    0.5     0.03486549     -5409.3339914735 -1.06E+00
   142 Broy./Diag. 0.40E-01    0.5     0.04681241     -5409.6251162199 -2.91E-01
   143 Broy./Diag. 0.40E-01    0.5     0.00236663     -5410.8600126029 -1.23E+00
   144 Broy./Diag. 0.40E-01    0.5     0.06090666     -5412.3491843872 -1.49E+00
   145 Broy./Diag. 0.40E-01    0.5     0.02435986     -5422.8651027076 -1.05E+01
   146 Broy./Diag. 0.40E-01    0.5     0.00828825     -5419.9779053915  2.89E+00
   147 Broy./Diag. 0.40E-01    0.5     0.01117821     -5420.4640914158 -4.86E-01
   148 Broy./Diag. 0.40E-01    0.5     0.00852291     -5420.7014991000 -2.37E-01
   149 Broy./Diag. 0.40E-01    0.5     0.01859074     -5422.0155482678 -1.31E+00
   150 Broy./Diag. 0.40E-01    0.5     0.00717233     -5418.7329337632  3.28E+00
   151 Broy./Diag. 0.40E-01    0.5     0.00994757     -5417.6724202048  1.06E+00
   152 Broy./Diag. 0.40E-01    0.5     0.00509522     -5418.6116077881 -9.39E-01
   153 Broy./Diag. 0.40E-01    0.5     0.01294674     -5418.5596779224  5.19E-02
   154 Broy./Diag. 0.40E-01    0.5     0.04849132     -5419.0970232827 -5.37E-01
   155 Broy./Diag. 0.40E-01    0.5     0.00913789     -5422.5262243410 -3.43E+00
   156 Broy./Diag. 0.40E-01    0.5     0.05985835     -5421.3503578938  1.18E+00
   157 Broy./Diag. 0.40E-01    0.6     0.02747983     -5417.3323298773  4.02E+00
   158 Broy./Diag. 0.40E-01    0.5     0.03627457     -5415.9402859032  1.39E+00
   159 Broy./Diag. 0.40E-01    0.5     0.00845949     -5417.4830076979 -1.54E+00
   160 Broy./Diag. 0.40E-01    0.5     0.02753104     -5416.9067861972  5.76E-01
   161 Broy./Diag. 0.40E-01    0.5     0.02024458     -5414.1972950968  2.71E+00
   162 Broy./Diag. 0.40E-01    0.5     0.08279565     -5412.1454871402  2.05E+00
   163 Broy./Diag. 0.40E-01    0.5     0.01838507     -5420.6661116078 -8.52E+00
   164 Broy./Diag. 0.40E-01    0.5     0.07342062     -5422.2937095907 -1.63E+00
   165 Broy./Diag. 0.40E-01    0.5     0.04365514     -5417.7743363186  4.52E+00
   166 Broy./Diag. 0.40E-01    0.6     0.03778440     -5423.1701480578 -5.40E+00
   167 Broy./Diag. 0.40E-01    0.5     0.06315788     -5426.6668894343 -3.50E+00
   168 Broy./Diag. 0.40E-01    0.5     0.01304872     -5420.7156023787  5.95E+00
   169 Broy./Diag. 0.40E-01    0.5     0.00474127     -5419.0379816113  1.68E+00
   170 Broy./Diag. 0.40E-01    0.5     0.03869802     -5418.9566988355  8.13E-02
   171 Broy./Diag. 0.40E-01    0.5     0.03002217     -5425.5299511858 -6.57E+00
   172 Broy./Diag. 0.40E-01    0.5     0.02613561     -5427.5631237653 -2.03E+00
   173 Broy./Diag. 0.40E-01    0.5     0.05381486     -5423.7575021624  3.81E+00
   174 Broy./Diag. 0.40E-01    0.5     0.08367399     -5412.5893373361  1.12E+01
   175 Broy./Diag. 0.40E-01    0.5     0.09179053     -5427.7955248765 -1.52E+01
   176 Broy./Diag. 0.40E-01    0.5     0.01182186     -5417.8849748975  9.91E+00
   177 Broy./Diag. 0.40E-01    0.5     0.04529130     -5416.1344707483  1.75E+00
   178 Broy./Diag. 0.40E-01    0.5     0.00845674     -5414.4605905597  1.67E+00
   179 Broy./Diag. 0.40E-01    0.5     0.04118191     -5414.9694750839 -5.09E-01
   180 Broy./Diag. 0.40E-01    0.5     0.02225383     -5411.5819747202  3.39E+00
   181 Broy./Diag. 0.40E-01    0.5     0.05027437     -5412.6332502002 -1.05E+00
   182 Broy./Diag. 0.40E-01    0.5     0.05879952     -5412.6136655003  1.96E-02
   183 Broy./Diag. 0.40E-01    0.5     0.09829530     -5413.5847672926 -9.71E-01
   184 Broy./Diag. 0.40E-01    0.5     0.01816427     -5423.6396240953 -1.01E+01
   185 Broy./Diag. 0.40E-01    0.5     0.01003010     -5427.0291297888 -3.39E+00
   186 Broy./Diag. 0.40E-01    0.5     0.01895141     -5427.4833293598 -4.54E-01
   187 Broy./Diag. 0.40E-01    0.5     0.00667498     -5428.0486508703 -5.65E-01
   188 Broy./Diag. 0.40E-01    0.5     0.00870362     -5428.2602711213 -2.12E-01
   189 Broy./Diag. 0.40E-01    0.5     0.01402948     -5427.4620439724  7.98E-01
   190 Broy./Diag. 0.40E-01    0.5     0.02153958     -5424.1013473478  3.36E+00
   191 Broy./Diag. 0.40E-01    0.5     0.00891410     -5423.0943486042  1.01E+00
   192 Broy./Diag. 0.40E-01    0.5     0.01500101     -5422.4965492299  5.98E-01
   193 Broy./Diag. 0.40E-01    0.5     0.02044844     -5417.3320894421  5.16E+00
   194 Broy./Diag. 0.40E-01    0.6     0.01060816     -5421.8076368765 -4.48E+00
   195 Broy./Diag. 0.40E-01    0.5     0.01615234     -5422.1350303020 -3.27E-01
   196 Broy./Diag. 0.40E-01    0.5     0.02019503     -5419.9847054438  2.15E+00
   197 Broy./Diag. 0.40E-01    0.5     0.02080042     -5422.1494977946 -2.16E+00
   198 Broy./Diag. 0.40E-01    0.5     0.03537052     -5421.8837400914  2.66E-01
   199 Broy./Diag. 0.40E-01    0.5     0.00963715     -5421.3905825962  4.93E-01
   200 Broy./Diag. 0.40E-01    0.5     0.02726352     -5421.1234581619  2.67E-01
   201 Broy./Diag. 0.40E-01    0.5     0.00942496     -5420.7321657853  3.91E-01
   202 Broy./Diag. 0.40E-01    0.5     0.01469342     -5419.6696763556  1.06E+00
   203 Broy./Diag. 0.40E-01    0.5     0.02391500     -5416.2605466517  3.41E+00
   204 Broy./Diag. 0.40E-01    0.5     0.03658496     -5416.3859587587 -1.25E-01
   205 Broy./Diag. 0.40E-01    0.5     0.02136110     -5412.8158976439  3.57E+00
   206 Broy./Diag. 0.40E-01    0.5     0.00737148     -5417.9844687178 -5.17E+00
   207 Broy./Diag. 0.40E-01    0.5     0.00510330     -5417.0751894306  9.09E-01
   208 Broy./Diag. 0.40E-01    0.5     0.04489487     -5418.0678901386 -9.93E-01
   209 Broy./Diag. 0.40E-01    0.5     0.04397006     -5416.2241318540  1.84E+00
   210 Broy./Diag. 0.40E-01    0.5     0.01290093     -5419.3303376040 -3.11E+00
   211 Broy./Diag. 0.40E-01    0.5     0.01666845     -5420.5866923399 -1.26E+00
   212 Broy./Diag. 0.40E-01    0.5     0.01830917     -5420.3202905925  2.66E-01
   213 Broy./Diag. 0.40E-01    0.5     0.02159375     -5417.6941018265  2.63E+00
   214 Broy./Diag. 0.40E-01    0.5     0.03495854     -5422.3546020637 -4.66E+00
   215 Broy./Diag. 0.40E-01    0.5     0.01874712     -5417.3769018139  4.98E+00
   216 Broy./Diag. 0.40E-01    0.5     0.05541391     -5419.3492056221 -1.97E+00
   217 Broy./Diag. 0.40E-01    0.5     0.05844884     -5417.6732970671  1.68E+00
   218 Broy./Diag. 0.40E-01    0.5     0.01929673     -5420.5731446536 -2.90E+00
   219 Broy./Diag. 0.40E-01    0.5     0.01825187     -5419.8466630967  7.26E-01
   220 Broy./Diag. 0.40E-01    0.5     0.00372876     -5423.5501503417 -3.70E+00
   221 Broy./Diag. 0.40E-01    0.5     0.00652915     -5423.8496297036 -2.99E-01
   222 Broy./Diag. 0.40E-01    0.5     0.01127126     -5422.1129762047  1.74E+00
   223 Broy./Diag. 0.40E-01    0.5     0.01423614     -5418.3265589052  3.79E+00
   224 Broy./Diag. 0.40E-01    0.5     0.00937256     -5418.9765774338 -6.50E-01
   225 Broy./Diag. 0.40E-01    0.5     0.03560278     -5418.1662225064  8.10E-01
   226 Broy./Diag. 0.40E-01    0.5     0.00863262     -5417.5726890639  5.94E-01
   227 Broy./Diag. 0.40E-01    0.5     0.02237026     -5416.4443064162  1.13E+00
   228 Broy./Diag. 0.40E-01    0.5     0.01204564     -5415.3668730147  1.08E+00
   229 Broy./Diag. 0.40E-01    0.5     0.01336477     -5417.3660442291 -2.00E+00
   230 Broy./Diag. 0.40E-01    0.6     0.00525568     -5418.2451459709 -8.79E-01
   231 Broy./Diag. 0.40E-01    0.5     0.03979675     -5418.6597362488 -4.15E-01
   232 Broy./Diag. 0.40E-01    0.5     0.04728238     -5423.7456975675 -5.09E+00
   233 Broy./Diag. 0.40E-01    0.5     0.03242042     -5414.6452250353  9.10E+00
   234 Broy./Diag. 0.40E-01    0.5     0.01234301     -5413.5065117693  1.14E+00
   235 Broy./Diag. 0.40E-01    0.5     0.05462382     -5416.0458023737 -2.54E+00
   236 Broy./Diag. 0.40E-01    0.5     0.00673128     -5424.2191823599 -8.17E+00
   237 Broy./Diag. 0.40E-01    0.5     0.01528554     -5423.4644485791  7.55E-01
   238 Broy./Diag. 0.40E-01    0.5     0.03147020     -5423.5659353296 -1.01E-01
   239 Broy./Diag. 0.40E-01    0.5     0.01080206     -5424.7961150843 -1.23E+00
   240 Broy./Diag. 0.40E-01    0.5     0.05511858     -5423.9289143805  8.67E-01
   241 Broy./Diag. 0.40E-01    0.5     0.00843578     -5418.7034813382  5.23E+00
   242 Broy./Diag. 0.40E-01    0.5     0.00560508     -5419.9643801907 -1.26E+00
   243 Broy./Diag. 0.40E-01    0.5     0.03698703     -5418.9000632984  1.06E+00
   244 Broy./Diag. 0.40E-01    0.5     0.01477947     -5412.8608499548  6.04E+00
   245 Broy./Diag. 0.40E-01    0.5     0.00863518     -5414.5604606944 -1.70E+00
   246 Broy./Diag. 0.40E-01    0.5     0.02428437     -5417.1542752774 -2.59E+00
   247 Broy./Diag. 0.40E-01    0.5     0.01762342     -5419.1425528200 -1.99E+00
   248 Broy./Diag. 0.40E-01    0.5     0.00539010     -5414.2496847915  4.89E+00
   249 Broy./Diag. 0.40E-01    0.5     0.00753316     -5414.2284221886  2.13E-02
   250 Broy./Diag. 0.40E-01    0.5     0.00193627     -5414.2645510919 -3.61E-02
   251 Broy./Diag. 0.40E-01    0.5     0.01100061     -5414.5314483329 -2.67E-01
   252 Broy./Diag. 0.40E-01    0.5     0.02034249     -5414.8961802284 -3.65E-01
   253 Broy./Diag. 0.40E-01    0.5     0.01095540     -5414.4869208933  4.09E-01
   254 Broy./Diag. 0.40E-01    0.5     0.00144951     -5415.5936333648 -1.11E+00
   255 Broy./Diag. 0.40E-01    0.5     0.01908979     -5415.8238833772 -2.30E-01
   256 Broy./Diag. 0.40E-01    0.5     0.02828857     -5416.8887493505 -1.06E+00
   257 Broy./Diag. 0.40E-01    0.5     0.02855207     -5420.5863834358 -3.70E+00
   258 Broy./Diag. 0.40E-01    0.5     0.03601594     -5420.9123869479 -3.26E-01
   259 Broy./Diag. 0.40E-01    0.5     0.01471055     -5416.7674284767  4.14E+00
   260 Broy./Diag. 0.40E-01    0.5     0.02748311     -5416.7929335334 -2.55E-02
   261 Broy./Diag. 0.40E-01    0.5     0.01764769     -5419.5016651182 -2.71E+00
   262 Broy./Diag. 0.40E-01    0.5     0.02597127     -5419.6675005432 -1.66E-01
   263 Broy./Diag. 0.40E-01    0.5     0.00447094     -5420.8172394015 -1.15E+00
   264 Broy./Diag. 0.40E-01    0.5     0.00802179     -5421.5737031020 -7.56E-01
   265 Broy./Diag. 0.40E-01    0.5     0.01192875     -5421.0489411676  5.25E-01
   266 Broy./Diag. 0.40E-01    0.5     0.02631789     -5420.1887949405  8.60E-01
   267 Broy./Diag. 0.40E-01    0.6     0.01126783     -5416.2946115756  3.89E+00
   268 Broy./Diag. 0.40E-01    0.5     0.01286970     -5417.5724647228 -1.28E+00
   269 Broy./Diag. 0.40E-01    0.5     0.00783188     -5416.4708680345  1.10E+00
   270 Broy./Diag. 0.40E-01    0.5     0.01500634     -5417.5260447834 -1.06E+00
   271 Broy./Diag. 0.40E-01    0.5     0.00587998     -5417.0009175815  5.25E-01
   272 Broy./Diag. 0.40E-01    0.5     0.00444089     -5418.1393768699 -1.14E+00
   273 Broy./Diag. 0.40E-01    0.5     0.00764438     -5417.8659147236  2.73E-01
   274 Broy./Diag. 0.40E-01    0.5     0.01046980     -5417.2658301902  6.00E-01
   275 Broy./Diag. 0.40E-01    0.5     0.01974266     -5418.9927827635 -1.73E+00
   276 Broy./Diag. 0.40E-01    0.5     0.01777724     -5419.6501607534 -6.57E-01
   277 Broy./Diag. 0.40E-01    0.5     0.01192222     -5417.9295151269  1.72E+00
   278 Broy./Diag. 0.40E-01    0.5     0.01855662     -5418.5946750340 -6.65E-01
   279 Broy./Diag. 0.40E-01    0.5     0.03070998     -5418.8468968563 -2.52E-01
   280 Broy./Diag. 0.40E-01    0.5     0.04363941     -5420.1194880282 -1.27E+00
   281 Broy./Diag. 0.40E-01    0.5     0.00654566     -5417.4148944682  2.70E+00
   282 Broy./Diag. 0.40E-01    0.5     0.04028880     -5417.4222279952 -7.33E-03
   283 Broy./Diag. 0.40E-01    0.5     0.00919876     -5421.8335341429 -4.41E+00
   284 Broy./Diag. 0.40E-01    0.5     0.00236690     -5422.0868311245 -2.53E-01
   285 Broy./Diag. 0.40E-01    0.6     0.00217486     -5421.9742779967  1.13E-01
   286 Broy./Diag. 0.40E-01    0.5     0.01496145     -5421.7251078269  2.49E-01
   287 Broy./Diag. 0.40E-01    0.5     0.02223707     -5422.0215208797 -2.96E-01
   288 Broy./Diag. 0.40E-01    0.5     0.00509097     -5420.4524696299  1.57E+00
   289 Broy./Diag. 0.40E-01    0.5     0.01064982     -5421.2631082899 -8.11E-01
   290 Broy./Diag. 0.40E-01    0.5     0.01607801     -5419.3848006042  1.88E+00
   291 Broy./Diag. 0.40E-01    0.5     0.02959944     -5417.7314827814  1.65E+00
   292 Broy./Diag. 0.40E-01    0.5     0.00379247     -5422.7176007610 -4.99E+00
   293 Broy./Diag. 0.40E-01    0.5     0.00395835     -5422.2533124630  4.64E-01
   294 Broy./Diag. 0.40E-01    0.6     0.00904355     -5421.4931623539  7.60E-01
[...]
      18     Ni       1         9.331173     8.675090    -0.006263     0.656082
      19     Ni       1         9.328781     8.677528    -0.006309     0.651253
      20     Ni       1         9.366101     8.632999     0.000899     0.733102
      21     Ni       1         9.348941     8.639387     0.011672     0.709554
      22     Ni       1         9.331173     8.675090    -0.006263     0.656082
      23     Ni       1         9.328781     8.677528    -0.006309     0.651253
      24     Ni       1         9.366101     8.632999     0.000899     0.733102
      25     Ni       1         9.348941     8.639387     0.011672     0.709554
      26     Ni       1         9.331173     8.675090    -0.006263     0.656082
      27     Ni       1         9.328781     8.677528    -0.006309     0.651253
      28     Ni       1         9.366101     8.632999     0.000899     0.733102
      29     Ni       1         9.348941     8.639387     0.011672     0.709554
      30     Ni       1         9.331173     8.675090    -0.006263     0.656082
      31     Ni       1         9.328781     8.677528    -0.006309     0.651253
      32     Ni       1         9.366101     8.632999     0.000899     0.733102
 # Total charge and spin      298.999965   277.000035    -0.000000    21.999929

 !-----------------------------------------------------------------------------!

 !-----------------------------------------------------------------------------!
                           Hirshfeld Charges

  #Atom  Element  Kind  Ref Charge     Population       Spin moment  Net charge
      1       Ni     1      18.000    9.351   8.640            0.711      0.009
      2       Ni     1      18.000    9.329   8.676            0.654     -0.005
      3       Ni     1      18.000    9.326   8.678            0.648     -0.005
      4       Ni     1      18.000    9.369   8.631            0.737     -0.000
      5       Ni     1      18.000    9.351   8.640            0.711      0.009
      6       Ni     1      18.000    9.329   8.676            0.654     -0.005
      7       Ni     1      18.000    9.326   8.678            0.648     -0.005
      8       Ni     1      18.000    9.369   8.631            0.737     -0.000
      9       Ni     1      18.000    9.351   8.640            0.711      0.009
     10       Ni     1      18.000    9.329   8.676            0.654     -0.005
     11       Ni     1      18.000    9.326   8.678            0.648     -0.005
     12       Ni     1      18.000    9.369   8.631            0.737     -0.000
     13       Ni     1      18.000    9.351   8.640            0.711      0.009
     14       Ni     1      18.000    9.329   8.676            0.654     -0.005
     15       Ni     1      18.000    9.326   8.678            0.648     -0.005
     16       Ni     1      18.000    9.369   8.631            0.737     -0.000
     17       Ni     1      18.000    9.351   8.640            0.711      0.009
     18       Ni     1      18.000    9.329   8.676            0.654     -0.005
     19       Ni     1      18.000    9.326   8.678            0.648     -0.005
     20       Ni     1      18.000    9.369   8.631            0.737     -0.000
     21       Ni     1      18.000    9.351   8.640            0.711      0.009
     22       Ni     1      18.000    9.329   8.676            0.654     -0.005
     23       Ni     1      18.000    9.326   8.678            0.648     -0.005
     24       Ni     1      18.000    9.369   8.631            0.737     -0.000
     25       Ni     1      18.000    9.351   8.640            0.711      0.009
     26       Ni     1      18.000    9.329   8.676            0.654     -0.005
     27       Ni     1      18.000    9.326   8.678            0.648     -0.005
     28       Ni     1      18.000    9.369   8.631            0.737     -0.000
     29       Ni     1      18.000    9.351   8.640            0.711      0.009
     30       Ni     1      18.000    9.329   8.676            0.654     -0.005
     31       Ni     1      18.000    9.326   8.678            0.648     -0.005
     32       Ni     1      18.000    9.369   8.631            0.737     -0.000

  Total Charge                                                           -0.000
 !-----------------------------------------------------------------------------!

 ENERGY| Total FORCE_EVAL ( QS ) energy [a.u.]:            -5417.905734684764866

 -------------------------------------------------------------------------------
 -                                                                             -
 -                                DBCSR STATISTICS                             -
 -                                                                             -
 -------------------------------------------------------------------------------
 COUNTER                                    TOTAL       BLAS       SMM       ACC
 flops    26 x    26 x    30          21415680000       0.0%    100.0%      0.0%
 flops    26 x    26 x    32         205590528000       0.0%    100.0%      0.0%
 flops inhomo. stacks                           0       0.0%      0.0%      0.0%
 flops total                       227.006208E+09       0.0%    100.0%      0.0%
 flops max/rank                      3.009552E+09       0.0%    100.0%      0.0%
 matmuls inhomo. stacks                         0       0.0%      0.0%      0.0%
 matmuls total                            5280000       0.0%    100.0%      0.0%
 number of processed stacks               1280000       0.0%    100.0%      0.0%
 average stack size                                     0.0       4.1       0.0
 marketing flops                   405.017592E+09
 -------------------------------------------------------------------------------
 # multiplications                           1000
 max memory usage/rank             232.046592E+06
 # max total images/rank                        2
 # max 3D layers                                1
 # MPI messages exchanged                 3712000
 MPI messages size (bytes):
  total size                        46.565376E+09
  min size                           0.000000E+00
  max size                          26.624000E+03
  average size                      12.544552E+03
 MPI breakdown and total messages size (bytes):
             size <=      128             1392000                        0
       128 < size <=     8192                   0                        0
      8192 < size <=    32768             2320000              46565376000
     32768 < size <=   131072                   0                        0
    131072 < size <=  4194304                   0                        0
   4194304 < size <= 16777216                   0                        0
  16777216 < size                               0                        0
 -------------------------------------------------------------------------------

 *** WARNING in dbcsr_mm.F:290 :: Using a non-square number of MPI ranks ***
 *** might lead to poor performance. Used ranks: 128 Suggested: 121 256  ***

 -------------------------------------------------------------------------------
 -                                                                             -
 -                      DBCSR MESSAGE PASSING PERFORMANCE                      -
 -                                                                             -
 -------------------------------------------------------------------------------
 ROUTINE             CALLS      AVE VOLUME [Bytes]
 MP_Bcast                3                     12.
 MP_Allreduce         7025                      8.
 MP_Alltoall         28012                  50954.
 MP_ISend            64000                   6481.
 MP_IRecv            64000                   5647.
 -------------------------------------------------------------------------------

 -------------------------------------------------------------------------------
 -                                                                             -
 -                                DBM STATISTICS                               -
 -                                                                             -
 -------------------------------------------------------------------------------
    M  x    N  x    K                                          COUNT     PERCENT
 -------------------------------------------------------------------------------

 -------------------------------------------------------------------------------
 -                                                                             -
 -                                GRID STATISTICS                              -
 -                                                                             -
 -------------------------------------------------------------------------------
 LP    KERNEL             BACKEND                              COUNT     PERCENT
 6     collocate ortho    REF                               77210112      50.02%
 6     integrate ortho    REF                               77056000      49.92%
 0     integrate general  REF                                  65536       0.04%
 0     collocate general  REF                                  36864       0.02%
 -------------------------------------------------------------------------------

 MEMORY| Estimated peak process memory [MiB]                                 224

 -------------------------------------------------------------------------------
 ----                             MULTIGRID INFO                            ----
 -------------------------------------------------------------------------------
 count for grid        1:         969696          cutoff [a.u.]          300.00
 count for grid        2:         304320          cutoff [a.u.]          100.00
 count for grid        3:         238080          cutoff [a.u.]           33.33
 count for grid        4:          65120          cutoff [a.u.]           11.11
 count for grid        5:           5120          cutoff [a.u.]            3.70
 total gridlevel count  :        1582336

 -------------------------------------------------------------------------------
 -                                                                             -
 -                         MESSAGE PASSING PERFORMANCE                         -
 -                                                                             -
 -------------------------------------------------------------------------------

 ROUTINE             CALLS      AVE VOLUME [Bytes]
 MP_Group                5
 MP_Bcast             2531                  73596.
 MP_Allreduce        12903                     95.
 MP_Sync             18021
 MP_Alltoall         33034               27070080.
 MP_SendRecv        509016                   5208.
 MP_ISendRecv       508000                   5208.
 MP_Wait            606262
 MP_comm_split        1000
 MP_ISend           206212                  38670.
 MP_IRecv           206456                  38627.
 MP_Recv               750                 133120.
 MP_Write_All            2                  19908.
 -------------------------------------------------------------------------------


 -------------------------------------------------------------------------------
 -                                                                             -
 -                           R E F E R E N C E S                               -
 -                                                                             -
 -------------------------------------------------------------------------------
 
 CP2K version 2023.1, the CP2K developers group (2023).
 CP2K is freely available from https://www.cp2k.org/ .

 Kuehne,Thomas D.; Iannuzzi,Marcella; Del Ben,Mauro;
 Rybkin,Vladimir V.; Seewald,Patrick; Stein,Frederick; Laino,Teodoro;
 Khaliullin,Rustam Z.; Schuett,Ole; Schiffmann,Florian; Golze,Dorothea;
 Wilhelm,Jan; Chulkov,Sergey; Bani-Hashemian,Mohammad Hossein;
 Weber,Valery; Borstnik,Urban; Taillefumier,Mathieu;
 Jakobovits,Alice Shoshana; Lazzaro,Alfio; Pabst,Hans; Mueller,Tiziano;
 Schade,Robert; Guidon,Manuel; Andermatt,Samuel; Holmberg,Nico;
 Schenter,Gregory K.; Hehn,Anna; Bussy,Augustin; Belleflamme,Fabian;
 Tabacchi,Gloria; Gloess,Andreas; Lass,Michael; Bethune,Iain;
 Mundy,Christopher J.; Plessl,Christian; Watkins,Matt;
 VandeVondele,Joost; Krack,Matthias; Hutter,Juerg. 
 The Journal of Chemical Physics, 152 (19), (2020). 
 CP2K: An electronic structure and molecular dynamics software package -
 Quickstep: Efficient and accurate electronic structure calculations.
 https://doi.org/10.1063/5.0007045

 Schuett, Ole; Messmer, Peter; Hutter, Juerg; VandeVondele, Joost. 
 Electronic Structure Calculations on Graphics Processing Units, John
 Wiley & Sons, Ltd, 173-190 (2016). 
 GPU-Accelerated Sparse Matrix-Matrix Multiplication for
 Linear Scaling Density Functional Theory.
 https://doi.org/10.1002/9781118670712.ch8

 Heinecke, A; Henry, G; Hutchinson, M; Pabst, H. 
 Proceedings of Intl. Supercomputing Conference, 981-991 (2016). 
 LIBXSMM: Accelerating Small Matrix Multiplications
 by Runtime Code Generation.
 https://doi.org/10.1109/SC.2016.83

 Borstnik, U; VandeVondele, J; Weber, V; Hutter, J. 
 PARALLEL COMPUTING, 40 (5-6), 47-58 (2014). 
 Sparse matrix multiplication: The distributed block-compressed sparse
 row library.
 https://doi.org/10.1016/j.parco.2014.03.012

 Hutter, J; Iannuzzi, M; Schiffmann, F; VandeVondele, J. 
 WIREs Comput Mol Sci., 4 (1), 15-25 (2014). 
 CP2K: atomistic simulations of condensed matter systems.
 https://doi.org/10.1002/wcms.1159

 Marek, A; Blum, V; Johanni, R; Havu, V; Lang, B; Auckenthaler, T;
 Heinecke, A; Bungartz, H; Lederer, H. 
 Journal of Physics: Condensed Matter, 26 (21), (2014). 
 The ELPA library: scalable parallel eigenvalue solutions for
 electronic structure
 theory and computational science.
 https://doi.org/10.1088/0953-8984/26/21/213201

 VandeVondele, J; Hutter, J. 
 JOURNAL OF CHEMICAL PHYSICS, 127 (11), 114105 (2007). 
 Gaussian basis sets for accurate calculations on molecular systems in
 gas and condensed phases.
 https://doi.org/10.1063/1.2770708

 Krack, M. 
 THEORETICAL CHEMISTRY ACCOUNTS, 114 (1-3), 145-152 (2005). 
 Pseudopotentials for H to Kr optimized for gradient-corrected
 exchange-correlation functionals.
 https://doi.org/10.1007/s00214-005-0655-y

 VandeVondele, J; Krack, M; Mohamed, F; Parrinello, M; Chassaing, T;
 Hutter, J. COMPUTER PHYSICS COMMUNICATIONS, 167 (2), 103-128 (2005). 
 QUICKSTEP: Fast and accurate density functional calculations using a
 mixed Gaussian and plane waves approach.
 https://doi.org/10.1016/j.cpc.2004.12.014

 Frigo, M; Johnson, SG. 
 PROCEEDINGS OF THE IEEE, 93 (2), 216-231 (2005). 
 The design and implementation of FFTW3.
 https://doi.org/10.1109/JPROC.2004.840301

 Hartwigsen, C; Goedecker, S; Hutter, J. 
 PHYSICAL REVIEW B, 58 (7), 3641-3662 (1998). 
 Relativistic separable dual-space Gaussian pseudopotentials from H to Rn.
 https://doi.org/10.1103/PhysRevB.58.3641

 Lippert, G; Hutter, J; Parrinello, M. 
 MOLECULAR PHYSICS, 92 (3), 477-487 (1997). 
 A hybrid Gaussian and plane wave density functional scheme.
 https://doi.org/10.1080/002689797170220

 Perdew, JP; Burke, K; Ernzerhof, M. 
 PHYSICAL REVIEW LETTERS, 77 (18), 3865-3868 (1996). 
 Generalized gradient approximation made simple.
 https://doi.org/10.1103/PhysRevLett.77.3865

 Goedecker, S; Teter, M; Hutter, J. 
 PHYSICAL REVIEW B, 54 (3), 1703-1710 (1996). 
 Separable dual-space Gaussian pseudopotentials.
 https://doi.org/10.1103/PhysRevB.54.1703


 -------------------------------------------------------------------------------
 -                                                                             -
 -                                T I M I N G                                  -
 -                                                                             -
 -------------------------------------------------------------------------------
 SUBROUTINE                       CALLS  ASD         SELF TIME        TOTAL TIME
                                MAXIMUM       AVERAGE  MAXIMUM  AVERAGE  MAXIMUM
 CP2K                                 1  1.0    0.024    0.026  275.183  275.184
 qs_energies                          1  2.0    0.001    0.002  274.897  274.898
 scf_env_do_scf                       1  3.0    0.002    0.002  273.822  273.825
 scf_env_do_scf_inner_loop          500  4.0    0.021    0.044  273.820  273.823
 qs_ks_update_qs_env                500  5.0    0.006    0.007  102.174  102.231
 rebuild_ks_matrix                  500  6.0    0.003    0.004  102.118  102.175
 qs_ks_build_kohn_sham_matrix       500  7.0    0.074    0.105  102.114  102.172
 qs_rho_update_rho_low              501  5.0    0.006    0.007   89.775   89.782
 calculate_rho_elec                1002  6.0    0.078    0.087   89.770   89.777
 sum_up_and_integrate               500  8.0    0.069    0.133   85.936   86.005
 integrate_v_rspace                1000  9.0    0.027    0.039   85.862   85.941
 qs_scf_new_mos                     500  5.0    0.009    0.012   76.578   76.778
 grid_collocate_task_list          1002  7.0   68.812   72.518   68.812   72.518
 eigensolver                       1000  6.0    0.092    0.134   71.935   71.958
 grid_integrate_task_list          1000 10.0   61.548   64.410   61.548   64.410
 cp_fm_diag_elpa                   1000  7.0    0.004    0.008   63.733   63.869
 cp_fm_redistribute_end            1000  8.0   54.865   62.908   55.105   62.912
 cp_fm_diag_elpa_base              1000  8.0    7.581   60.801    7.724   61.819
 rs_pw_transfer                   10014  9.5    0.125    0.187   31.449   33.349
 density_rs2pw                     1002  7.0    0.040    0.046   20.036   21.907
 pw_transfer                      20511 10.0    2.615    2.817   20.848   21.647
 potential_pw2rs                   1000 10.0    0.038    0.046   20.725   20.953
 fft_wrap_pw1pw2                  19511 11.1    0.084    0.099   18.199   19.217
 fft_wrap_pw1pw2_300              11503 12.4    0.395    0.469   15.051   15.662
 qs_vxc_create                      500  8.0    0.007    0.008   14.835   14.880
 xc_vxc_pw_create                   500  9.0    0.133    0.147   14.827   14.874
 fft3d_pb                         11503 13.4    3.467    3.804   12.723   13.574
 mp_waitany                       64192 11.5   10.093   12.693   10.093   12.693
 rs_pw_transfer_PW2RS_300          1002 12.0    4.105    4.797   11.767   12.085
 rs_pw_transfer_RS2PW_300          1004  9.0    2.857    4.121    9.441   11.285
 xc_rho_set_and_dset_create         500 10.0    0.147    0.171    9.026    9.519
 mp_alltoall_z22v                 31014 15.2    7.981    9.457    7.981    9.457
 xc_pw_derive                      6000 11.0    0.016    0.020    8.183    8.882
 cp_fm_cholesky_restore            3000  7.0    7.858    8.075    7.858    8.075
 mp_alltoall_d11v                 14008  9.3    4.460    6.554    4.460    6.554
 xc_pw_divergence                  1000 10.0    0.008    0.010    5.529    6.323
 rs_gather_matrices                1000 10.0    0.056    0.101    3.562    5.660
 -------------------------------------------------------------------------------

 The number of warnings for this run is : 2
 
 -------------------------------------------------------------------------------
  **** **** ******  **  PROGRAM ENDED AT                 2023-02-06 17:15:58.513
 ***** ** ***  *** **   PROGRAM RAN ON                                 nid001650
 **    ****   ******    PROGRAM RAN BY                                    cahart
 ***** **    ** ** **   PROGRAM PROCESS ID                                181912
  **** **  *******  **  PROGRAM STOPPED IN /mnt/lustre/a2fs-work2/work/e05/e05/c
                                           ahart/postdoc/masters/ni/archer2/bulk
                                           /optimise/multiplicity-65_mos-30_temp
                                           -300/search/4.0E-02_5.0E-01
