 DBCSR| CPU Multiplication driver                                           XSMM (U)
 DBCSR| Multrec recursion limit                                              512 (U)
 DBCSR| Multiplication stack size                                           1000 (D)
 DBCSR| Maximum elements for images                                    UNLIMITED (U)
 DBCSR| Multiplicative factor virtual images                                   1 (U)
 DBCSR| Use multiplication densification                                       T (D)
 DBCSR| Multiplication size stacks                                             3 (U)
 DBCSR| Use memory pool for CPU allocation                                     F (U)
 DBCSR| Number of 3D layers                                               SINGLE (U)
 DBCSR| Use MPI memory allocation                                              F (U)
 DBCSR| Use RMA algorithm                                                      F (U)
 DBCSR| Use Communication thread                                               T (U)
 DBCSR| Communication thread load                                             87 (D)
 DBCSR| MPI: My process id                                                     0
 DBCSR| MPI: Number of processes                                             128
 DBCSR| OMP: Current number of threads                                         1
 DBCSR| OMP: Max number of threads                                             1
 DBCSR| Split modifier for TAS multiplication algorithm                  1.0E+00 (U)


  **** **** ******  **  PROGRAM STARTED AT               2023-02-14 15:48:49.513
 ***** ** ***  *** **   PROGRAM STARTED ON                             nid001026
 **    ****   ******    PROGRAM STARTED BY                                cahart
 ***** **    ** ** **   PROGRAM PROCESS ID                                 42931
  **** **  *******  **  PROGRAM STARTED IN /mnt/lustre/a2fs-work2/work/e05/e05/c
                                           ahart/postdoc/masters/ni/archer2/slab
                                           /optimise/alpha-beta/scf_1e-4_mos-100
                                           0_temp-2000_spin-0.7-0.5_periodic-xyz
                                           /search/1.0E-1_1.0E-2

 CP2K| version string:                 CP2K version 2023.1 (Development Version)
 CP2K| source code revision number:                                  git:964cd58
 CP2K| cp2kflags: omp libint fftw3 libxc elpa parallel scalapack xsmm plumed2 mk
 CP2K|            l
 CP2K| is freely available from                            https://www.cp2k.org/
 CP2K| Program compiled at                          Mon 13 Feb 17:05:14 GMT 2023
 CP2K| Program compiled on                                                  ln01
 CP2K| Program compiled for                                              ARCHER2
 CP2K| Data directory path    /work/e05/e05/cahart/cp2k/cp2k-2023.1/cp2k-2023.1-
 CP2K| Input file name                                                  cp2k.inp

 GLOBAL| Force Environment number                                              1
 GLOBAL| Basis set file name                                        BASIS_MOLOPT
 GLOBAL| Potential file name                                      GTH_POTENTIALS
 GLOBAL| MM Potential file name                                     MM_POTENTIAL
 GLOBAL| Coordinate file name                                      __STD_INPUT__
 GLOBAL| Method name                                                        CP2K
 GLOBAL| Project name                                                    Ni_bulk
 GLOBAL| Run type                                                         ENERGY
 GLOBAL| FFT library                                                       FFTW3
 GLOBAL| Diagonalization library                                            ELPA
 GLOBAL| DGEMM library                                                      BLAS
 GLOBAL| Minimum number of eigenvectors for ELPA usage                        16
 GLOBAL| Orthonormality check for eigenvectors                          DISABLED
 GLOBAL| Matrix multiplication library                                 ScaLAPACK
 GLOBAL| All-to-all communication in single precision                          F
 GLOBAL| FFTs using library dependent lengths                                  F
 GLOBAL| Grid backend                                                       AUTO
 GLOBAL| Global print level                                               MEDIUM
 GLOBAL| MPI I/O enabled                                                       T
 GLOBAL| Total number of message passing processes                           128
 GLOBAL| Number of threads for this process                                    1
 GLOBAL| This output is from process                                           0
 GLOBAL| Stack size for threads created by OpenMP (OMP_STACKSIZE)        default
 GLOBAL| CPU model name                          AMD EPYC 7742 64-Core Processor
 GLOBAL| CPUID                                                              1002

 MEMORY| system memory details [Kb]
 MEMORY|                        rank 0           min           max       average
 MEMORY| MemTotal            263528084     263528084     263528084     263528084
 MEMORY| MemFree             238461564     238461564     238461564     238461564
 MEMORY| Buffers                 26288         26288         26288         26288
 MEMORY| Cached                 889532        889532        889532        889532
 MEMORY| Slab                  1683272       1683272       1683272       1683272
 MEMORY| SReclaimable           111328        111328        111328        111328
 MEMORY| MemLikelyFree       239488712     239488712     239488712     239488712


 *** Fundamental physical constants (SI units) ***

 *** Literature: B. J. Mohr and B. N. Taylor,
 ***             CODATA recommended values of the fundamental physical
 ***             constants: 2006, Web Version 5.1
 ***             http://physics.nist.gov/constants

 Speed of light in vacuum [m/s]                             2.99792458000000E+08
 Magnetic constant or permeability of vacuum [N/A**2]       1.25663706143592E-06
 Electric constant or permittivity of vacuum [F/m]          8.85418781762039E-12
 Planck constant (h) [J*s]                                  6.62606896000000E-34
 Planck constant (h-bar) [J*s]                              1.05457162825177E-34
 Elementary charge [C]                                      1.60217648700000E-19
 Electron mass [kg]                                         9.10938215000000E-31
 Electron g factor [ ]                                     -2.00231930436220E+00
 Proton mass [kg]                                           1.67262163700000E-27
 Fine-structure constant                                    7.29735253760000E-03
 Rydberg constant [1/m]                                     1.09737315685270E+07
 Avogadro constant [1/mol]                                  6.02214179000000E+23
 Boltzmann constant [J/K]                                   1.38065040000000E-23
 Atomic mass unit [kg]                                      1.66053878200000E-27
 Bohr radius [m]                                            5.29177208590000E-11

 *** Conversion factors ***

 [u] -> [a.u.]                                              1.82288848426455E+03
 [Angstrom] -> [Bohr] = [a.u.]                              1.88972613288564E+00
 [a.u.] = [Bohr] -> [Angstrom]                              5.29177208590000E-01
 [a.u.] -> [s]                                              2.41888432650478E-17
 [a.u.] -> [fs]                                             2.41888432650478E-02
 [a.u.] -> [J]                                              4.35974393937059E-18
 [a.u.] -> [N]                                              8.23872205491840E-08
 [a.u.] -> [K]                                              3.15774647902944E+05
 [a.u.] -> [kJ/mol]                                         2.62549961709828E+03
 [a.u.] -> [kcal/mol]                                       6.27509468713739E+02
 [a.u.] -> [Pa]                                             2.94210107994716E+13
 [a.u.] -> [bar]                                            2.94210107994716E+08
 [a.u.] -> [atm]                                            2.90362800883016E+08
 [a.u.] -> [eV]                                             2.72113838565563E+01
 [a.u.] -> [Hz]                                             6.57968392072181E+15
 [a.u.] -> [1/cm] (wave numbers)                            2.19474631370540E+05
 [a.u./Bohr**2] -> [1/cm]                                   5.14048714338585E+03
 

 CELL_TOP| Volume [angstrom^3]:                                       983.249569
 CELL_TOP| Vector a [angstrom     7.012     0.000     0.000   |a| =     7.011596
 CELL_TOP| Vector b [angstrom     0.000     7.012     0.000   |b| =     7.011596
 CELL_TOP| Vector c [angstrom     0.000     0.000    20.000   |c| =    20.000000
 CELL_TOP| Angle (b,c), alpha [degree]:                                90.000000
 CELL_TOP| Angle (a,c), beta  [degree]:                                90.000000
 CELL_TOP| Angle (a,b), gamma [degree]:                                90.000000
 CELL_TOP| Numerically orthorhombic:                                         YES
 CELL_TOP| Periodicity                                                       XYZ

 GENERATE|  Preliminary Number of Bonds generated:                             0
 GENERATE|  Achieved consistency in connectivity generation.

 CELL| Volume [angstrom^3]:                                           983.249569
 CELL| Vector a [angstrom]:       7.012     0.000     0.000   |a| =     7.011596
 CELL| Vector b [angstrom]:       0.000     7.012     0.000   |b| =     7.011596
 CELL| Vector c [angstrom]:       0.000     0.000    20.000   |c| =    20.000000
 CELL| Angle (b,c), alpha [degree]:                                    90.000000
 CELL| Angle (a,c), beta  [degree]:                                    90.000000
 CELL| Angle (a,b), gamma [degree]:                                    90.000000
 CELL| Numerically orthorhombic:                                             YES
 CELL| Periodicity                                                           XYZ

 CELL_REF| Volume [angstrom^3]:                                       983.249569
 CELL_REF| Vector a [angstrom     7.012     0.000     0.000   |a| =     7.011596
 CELL_REF| Vector b [angstrom     0.000     7.012     0.000   |b| =     7.011596
 CELL_REF| Vector c [angstrom     0.000     0.000    20.000   |c| =    20.000000
 CELL_REF| Angle (b,c), alpha [degree]:                                90.000000
 CELL_REF| Angle (a,c), beta  [degree]:                                90.000000
 CELL_REF| Angle (a,b), gamma [degree]:                                90.000000
 CELL_REF| Numerically orthorhombic:                                         YES
 CELL_REF| Periodicity                                                       XYZ

 *** WARNING in cryssym.F:165 :: Symmetry library SPGLIB not available ***


 *******************************************************************************
                                    Kpoints
 *******************************************************************************
 BRILLOUIN| K-point scheme                                        Monkhorst-Pack
 BRILLOUIN| K-Point grid                                             4    4    1
 BRILLOUIN| Accuracy in Symmetry determination                      0.100000E-05
 BRILLOUIN| K-Point point group symmetrization                               OFF
 BRILLOUIN| Wavefunction type                                            COMPLEX
 BRILLOUIN| List of Kpoints [2 Pi/Bohr]                                        8
 BRILLOUIN| Number           Weight            X              Y              Z
 BRILLOUIN|     1           0.12500       -0.37500       -0.37500        0.00000
 BRILLOUIN|     2           0.12500       -0.37500       -0.12500        0.00000
 BRILLOUIN|     3           0.12500       -0.37500        0.12500        0.00000
 BRILLOUIN|     4           0.12500       -0.37500        0.37500        0.00000
 BRILLOUIN|     5           0.12500       -0.12500       -0.37500        0.00000
 BRILLOUIN|     6           0.12500       -0.12500       -0.12500        0.00000
 BRILLOUIN|     7           0.12500       -0.12500        0.12500        0.00000
 BRILLOUIN|     8           0.12500       -0.12500        0.37500        0.00000
 *******************************************************************************

 *******************************************************************************
 *******************************************************************************
 **                                                                           **
 **     #####                         ##              ##                      **
 **    ##   ##            ##          ##              ##                      **
 **   ##     ##                       ##            ######                    **
 **   ##     ##  ##   ##  ##   #####  ##  ##   ####   ##    #####    #####    **
 **   ##     ##  ##   ##  ##  ##      ## ##   ##      ##   ##   ##  ##   ##   **
 **   ##  ## ##  ##   ##  ##  ##      ####     ###    ##   ######   ######    **
 **    ##  ###   ##   ##  ##  ##      ## ##      ##   ##   ##       ##        **
 **     #######   #####   ##   #####  ##  ##  ####    ##    #####   ##        **
 **           ##                                                    ##        **
 **                                                                           **
 **                                                ... make the atoms dance   **
 **                                                                           **
 **            Copyright (C) by CP2K developers group (2000-2023)             **
 **                      J. Chem. Phys. 152, 194103 (2020)                    **
 **                                                                           **
 *******************************************************************************

 *** WARNING in qs_environment.F:1456 :: Number of electrons will be ***
 *** overwritten by NELEC_ALPHA and NELEC_BETA, multiplicity will be ***
 *** ignored.                                                        ***

 Number of electrons should be                                               576
 Sum of NELEC_ALPHA and NELEC_BETA is                                    576.000

 *** WARNING in qs_environment.F:1488 :: NELEC_ALPHA is not an integer, ***
 *** many features will not be supported.                               ***


 *** WARNING in qs_environment.F:1500 :: NELEC_BETA is not an integer, ***
 *** many features will not be supported.                              ***


 *** WARNING in qs_environment.F:1532 :: More ADDED_MOs requested for beta ***
 *** spin than available.                                                  ***


 *** WARNING in qs_environment.F:1548 :: More added MOs requested than     ***
 *** available. The full set of unoccupied MOs will be used. Use           ***
 *** 'ADDED_MOS -1' to always use all available MOs and to get rid of this ***
 *** warning.                                                              ***


 DFT| Spin unrestricted (spin-polarized) Kohn-Sham calculation               UKS
 DFT| Multiplicity                                                             1
 DFT| Number of spin states                                                    2
 DFT| Charge                                                                   0
 DFT| Self-interaction correction (SIC)                                       NO
 DFT| Cutoffs: density                                              1.000000E-10
 DFT|          gradient                                             1.000000E-10
 DFT|          tau                                                  1.000000E-10
 DFT|          cutoff_smoothing_range                               0.000000E+00
 DFT| XC density smoothing                                                  NONE
 DFT| XC derivatives                                                          PW

 FUNCTIONAL| PBE:
 FUNCTIONAL| J.P.Perdew, K.Burke, M.Ernzerhof, Phys. Rev. Letter, vol. 77, n 18,
 FUNCTIONAL|  pp. 3865-3868, (1996){spin polarized}                             

 vdW POTENTIAL|                                                   Pair Potential
 vdW POTENTIAL|          DFT-D3 (Version 3.1)
 vdW POTENTIAL|          Potential Form: S. Grimme et al, JCP 132: 154104 (2010)
 vdW POTENTIAL|          Zero Damping
 vdW POTENTIAL|          Cutoff Radius [Bohr]:                             20.00
 vdW POTENTIAL|          s6 Scaling Factor:                               1.0000
 vdW POTENTIAL|          sr6 Scaling Factor:                              1.2170
 vdW POTENTIAL|          s8 Scaling Factor:                               0.7220
 vdW POTENTIAL|          Cutoff for CN calculation:                   0.1000E-05

 QS| Method:                                                                 GPW
 QS| Density plane wave grid type                        NON-SPHERICAL FULLSPACE
 QS| Number of grid levels:                                                    5
 QS| Density cutoff [a.u.]:                                                300.0
 QS| Multi grid cutoff [a.u.]: 1) grid level                               300.0
 QS|                           2) grid level                               100.0
 QS|                           3) grid level                                33.3
 QS|                           4) grid level                                11.1
 QS|                           5) grid level                                 3.7
 QS| Grid level progression factor:                                          3.0
 QS| Relative density cutoff [a.u.]:                                        30.0
 QS| Interaction thresholds: eps_pgf_orb:                                1.0E-06
 QS|                         eps_filter_matrix:                          0.0E+00
 QS|                         eps_core_charge:                            1.0E-14
 QS|                         eps_rho_gspace:                             1.0E-12
 QS|                         eps_rho_rspace:                             1.0E-12
 QS|                         eps_gvg_rspace:                             1.0E-06
 QS|                         eps_ppl:                                    1.0E-02
 QS|                         eps_ppnl:                                   1.0E-08


 ATOMIC KIND INFORMATION

  1. Atomic kind: Ni_i                                  Number of atoms:      16

     Orbital Basis Set                                        DZVP-MOLOPT-SR-GTH

       Number of orbital shell sets:                                           1
       Number of orbital shells:                                               8
       Number of primitive Cartesian functions:                                6
       Number of Cartesian basis functions:                                   31
       Number of spherical basis functions:                                   26
       Norm type:                                                              2

       Normalised Cartesian orbitals:

                        Set   Shell   Orbital            Exponent    Coefficient

                          1       1    2s               10.077428      -0.684558
                                                         5.847736      -0.844524
                                                         2.494033       1.088856
                                                         0.988355       0.395503
                                                         0.344978       0.010224
                                                         0.099466      -0.003250

                          1       2    3s               10.077428       0.096747
                                                         5.847736       0.162504
                                                         2.494033      -0.297192
                                                         0.988355      -0.319752
                                                         0.344978       0.088318
                                                         0.099466       0.118587

                          1       3    4s               10.077428       0.036437
                                                         5.847736      -0.381480
                                                         2.494033       0.003759
                                                         0.988355      -1.048256
                                                         0.344978       0.855825
                                                         0.099466      -0.176350

                          1       4    3px              10.077428      -3.133913
                                                         5.847736       3.027656
                                                         2.494033       2.353227
                                                         0.988355       0.554184
                                                         0.344978       0.019462
                                                         0.099466      -0.000291
                          1       4    3py              10.077428      -3.133913
                                                         5.847736       3.027656
                                                         2.494033       2.353227
                                                         0.988355       0.554184
                                                         0.344978       0.019462
                                                         0.099466      -0.000291
                          1       4    3pz              10.077428      -3.133913
                                                         5.847736       3.027656
                                                         2.494033       2.353227
                                                         0.988355       0.554184
                                                         0.344978       0.019462
                                                         0.099466      -0.000291

                          1       5    4px              10.077428      -0.112729
                                                         5.847736      -0.114008
                                                         2.494033      -0.347303
                                                         0.988355      -0.110323
                                                         0.344978       0.154096
                                                         0.099466       0.058386
                          1       5    4py              10.077428      -0.112729
                                                         5.847736      -0.114008
                                                         2.494033      -0.347303
                                                         0.988355      -0.110323
                                                         0.344978       0.154096
                                                         0.099466       0.058386
                          1       5    4pz              10.077428      -0.112729
                                                         5.847736      -0.114008
                                                         2.494033      -0.347303
                                                         0.988355      -0.110323
                                                         0.344978       0.154096
                                                         0.099466       0.058386

                          1       6    4dx2             10.077428       8.232726
                                                         5.847736       9.105758
                                                         2.494033       2.849835
                                                         0.988355       0.554319
                                                         0.344978       0.067245
                                                         0.099466       0.001940
                          1       6    4dxy             10.077428      14.259500
                                                         5.847736      15.771636
                                                         2.494033       4.936060
                                                         0.988355       0.960109
                                                         0.344978       0.116472
                                                         0.099466       0.003360
                          1       6    4dxz             10.077428      14.259500
                                                         5.847736      15.771636
                                                         2.494033       4.936060
                                                         0.988355       0.960109
                                                         0.344978       0.116472
                                                         0.099466       0.003360
                          1       6    4dy2             10.077428       8.232726
                                                         5.847736       9.105758
                                                         2.494033       2.849835
                                                         0.988355       0.554319
                                                         0.344978       0.067245
                                                         0.099466       0.001940
                          1       6    4dyz             10.077428      14.259500
                                                         5.847736      15.771636
                                                         2.494033       4.936060
                                                         0.988355       0.960109
                                                         0.344978       0.116472
                                                         0.099466       0.003360
                          1       6    4dz2             10.077428       8.232726
                                                         5.847736       9.105758
                                                         2.494033       2.849835
                                                         0.988355       0.554319
                                                         0.344978       0.067245
                                                         0.099466       0.001940

                          1       7    5dx2             10.077428      -2.715373
                                                         5.847736      -4.020640
                                                         2.494033      -1.397569
                                                         0.988355      -0.076143
                                                         0.344978       0.033435
                                                         0.099466       0.026032
                          1       7    5dxy             10.077428      -4.703164
                                                         5.847736      -6.963952
                                                         2.494033      -2.420661
                                                         0.988355      -0.131883
                                                         0.344978       0.057911
                                                         0.099466       0.045088
                          1       7    5dxz             10.077428      -4.703164
                                                         5.847736      -6.963952
                                                         2.494033      -2.420661
                                                         0.988355      -0.131883
                                                         0.344978       0.057911
                                                         0.099466       0.045088
                          1       7    5dy2             10.077428      -2.715373
                                                         5.847736      -4.020640
                                                         2.494033      -1.397569
                                                         0.988355      -0.076143
                                                         0.344978       0.033435
                                                         0.099466       0.026032
                          1       7    5dyz             10.077428      -4.703164
                                                         5.847736      -6.963952
                                                         2.494033      -2.420661
                                                         0.988355      -0.131883
                                                         0.344978       0.057911
                                                         0.099466       0.045088
                          1       7    5dz2             10.077428      -2.715373
                                                         5.847736      -4.020640
                                                         2.494033      -1.397569
                                                         0.988355      -0.076143
                                                         0.344978       0.033435
                                                         0.099466       0.026032

                          1       8    5fx3             10.077428      -0.467694
                                                         5.847736       0.618100
                                                         2.494033       0.066069
                                                         0.988355       0.262898
                                                         0.344978       0.004720
                                                         0.099466       0.007748
                          1       8    5fx2y            10.077428      -1.045795
                                                         5.847736       1.382114
                                                         2.494033       0.147734
                                                         0.988355       0.587859
                                                         0.344978       0.010555
                                                         0.099466       0.017325
                          1       8    5fx2z            10.077428      -1.045795
                                                         5.847736       1.382114
                                                         2.494033       0.147734
                                                         0.988355       0.587859
                                                         0.344978       0.010555
                                                         0.099466       0.017325
                          1       8    5fxy2            10.077428      -1.045795
                                                         5.847736       1.382114
                                                         2.494033       0.147734
                                                         0.988355       0.587859
                                                         0.344978       0.010555
                                                         0.099466       0.017325
                          1       8    5fxyz            10.077428      -1.811371
                                                         5.847736       2.393892
                                                         2.494033       0.255883
                                                         0.988355       1.018201
                                                         0.344978       0.018282
                                                         0.099466       0.030008
                          1       8    5fxz2            10.077428      -1.045795
                                                         5.847736       1.382114
                                                         2.494033       0.147734
                                                         0.988355       0.587859
                                                         0.344978       0.010555
                                                         0.099466       0.017325
                          1       8    5fy3             10.077428      -0.467694
                                                         5.847736       0.618100
                                                         2.494033       0.066069
                                                         0.988355       0.262898
                                                         0.344978       0.004720
                                                         0.099466       0.007748
                          1       8    5fy2z            10.077428      -1.045795
                                                         5.847736       1.382114
                                                         2.494033       0.147734
                                                         0.988355       0.587859
                                                         0.344978       0.010555
                                                         0.099466       0.017325
                          1       8    5fyz2            10.077428      -1.045795
                                                         5.847736       1.382114
                                                         2.494033       0.147734
                                                         0.988355       0.587859
                                                         0.344978       0.010555
                                                         0.099466       0.017325
                          1       8    5fz3             10.077428      -0.467694
                                                         5.847736       0.618100
                                                         2.494033       0.066069
                                                         0.988355       0.262898
                                                         0.344978       0.004720
                                                         0.099466       0.007748

       Atomic covalent radius [Angstrom]:                                  1.150

       Atomic van der Waals radius [Angstrom]:                             1.630

     GTH Potential information for                                   GTH-PBE-q18

       Description:                       Goedecker-Teter-Hutter pseudopotential
                                           Goedecker et al., PRB 54, 1703 (1996)
                                          Hartwigsen et al., PRB 58, 3641 (1998)
                                                      Krack, TCA 114, 145 (2005)

       Gaussian exponent of the core charge distribution:               4.081633
       Electronic configuration (s p d ...):                           4   6   8

       Parameters of the local part of the GTH pseudopotential:

                          rloc        C1          C2          C3          C4
                        0.350000    2.102166    0.648484

       Parameters of the non-local part of the GTH pseudopotential:

                   l      r(l)      h(i,j,l)

                   0    0.261295    0.622658    9.970227
                                    9.970227  -12.871507
                   1    0.224253  -11.142708   12.429566
                                   12.429566  -14.706861
                   2    0.215348  -12.628146

  2. Atomic kind: Ni_b                                  Number of atoms:      16

     Orbital Basis Set                                        DZVP-MOLOPT-SR-GTH

       Number of orbital shell sets:                                           1
       Number of orbital shells:                                               8
       Number of primitive Cartesian functions:                                6
       Number of Cartesian basis functions:                                   31
       Number of spherical basis functions:                                   26
       Norm type:                                                              2

       Normalised Cartesian orbitals:

                        Set   Shell   Orbital            Exponent    Coefficient

                          1       1    2s               10.077428      -0.684558
                                                         5.847736      -0.844524
                                                         2.494033       1.088856
                                                         0.988355       0.395503
                                                         0.344978       0.010224
                                                         0.099466      -0.003250

                          1       2    3s               10.077428       0.096747
                                                         5.847736       0.162504
                                                         2.494033      -0.297192
                                                         0.988355      -0.319752
                                                         0.344978       0.088318
                                                         0.099466       0.118587

                          1       3    4s               10.077428       0.036437
                                                         5.847736      -0.381480
                                                         2.494033       0.003759
                                                         0.988355      -1.048256
                                                         0.344978       0.855825
                                                         0.099466      -0.176350

                          1       4    3px              10.077428      -3.133913
                                                         5.847736       3.027656
                                                         2.494033       2.353227
                                                         0.988355       0.554184
                                                         0.344978       0.019462
                                                         0.099466      -0.000291
                          1       4    3py              10.077428      -3.133913
                                                         5.847736       3.027656
                                                         2.494033       2.353227
                                                         0.988355       0.554184
                                                         0.344978       0.019462
                                                         0.099466      -0.000291
                          1       4    3pz              10.077428      -3.133913
                                                         5.847736       3.027656
                                                         2.494033       2.353227
                                                         0.988355       0.554184
                                                         0.344978       0.019462
                                                         0.099466      -0.000291

                          1       5    4px              10.077428      -0.112729
                                                         5.847736      -0.114008
                                                         2.494033      -0.347303
                                                         0.988355      -0.110323
                                                         0.344978       0.154096
                                                         0.099466       0.058386
                          1       5    4py              10.077428      -0.112729
                                                         5.847736      -0.114008
                                                         2.494033      -0.347303
                                                         0.988355      -0.110323
                                                         0.344978       0.154096
                                                         0.099466       0.058386
                          1       5    4pz              10.077428      -0.112729
                                                         5.847736      -0.114008
                                                         2.494033      -0.347303
                                                         0.988355      -0.110323
                                                         0.344978       0.154096
                                                         0.099466       0.058386

                          1       6    4dx2             10.077428       8.232726
                                                         5.847736       9.105758
                                                         2.494033       2.849835
                                                         0.988355       0.554319
                                                         0.344978       0.067245
                                                         0.099466       0.001940
                          1       6    4dxy             10.077428      14.259500
                                                         5.847736      15.771636
                                                         2.494033       4.936060
                                                         0.988355       0.960109
                                                         0.344978       0.116472
                                                         0.099466       0.003360
                          1       6    4dxz             10.077428      14.259500
                                                         5.847736      15.771636
                                                         2.494033       4.936060
                                                         0.988355       0.960109
                                                         0.344978       0.116472
                                                         0.099466       0.003360
                          1       6    4dy2             10.077428       8.232726
                                                         5.847736       9.105758
                                                         2.494033       2.849835
                                                         0.988355       0.554319
                                                         0.344978       0.067245
                                                         0.099466       0.001940
                          1       6    4dyz             10.077428      14.259500
                                                         5.847736      15.771636
                                                         2.494033       4.936060
                                                         0.988355       0.960109
                                                         0.344978       0.116472
                                                         0.099466       0.003360
                          1       6    4dz2             10.077428       8.232726
                                                         5.847736       9.105758
                                                         2.494033       2.849835
                                                         0.988355       0.554319
                                                         0.344978       0.067245
                                                         0.099466       0.001940

                          1       7    5dx2             10.077428      -2.715373
                                                         5.847736      -4.020640
                                                         2.494033      -1.397569
                                                         0.988355      -0.076143
                                                         0.344978       0.033435
                                                         0.099466       0.026032
                          1       7    5dxy             10.077428      -4.703164
                                                         5.847736      -6.963952
                                                         2.494033      -2.420661
                                                         0.988355      -0.131883
                                                         0.344978       0.057911
                                                         0.099466       0.045088
                          1       7    5dxz             10.077428      -4.703164
                                                         5.847736      -6.963952
                                                         2.494033      -2.420661
                                                         0.988355      -0.131883
                                                         0.344978       0.057911
                                                         0.099466       0.045088
                          1       7    5dy2             10.077428      -2.715373
                                                         5.847736      -4.020640
                                                         2.494033      -1.397569
                                                         0.988355      -0.076143
                                                         0.344978       0.033435
                                                         0.099466       0.026032
                          1       7    5dyz             10.077428      -4.703164
                                                         5.847736      -6.963952
                                                         2.494033      -2.420661
                                                         0.988355      -0.131883
                                                         0.344978       0.057911
                                                         0.099466       0.045088
                          1       7    5dz2             10.077428      -2.715373
                                                         5.847736      -4.020640
                                                         2.494033      -1.397569
                                                         0.988355      -0.076143
                                                         0.344978       0.033435
                                                         0.099466       0.026032

                          1       8    5fx3             10.077428      -0.467694
                                                         5.847736       0.618100
                                                         2.494033       0.066069
                                                         0.988355       0.262898
                                                         0.344978       0.004720
                                                         0.099466       0.007748
                          1       8    5fx2y            10.077428      -1.045795
                                                         5.847736       1.382114
                                                         2.494033       0.147734
                                                         0.988355       0.587859
                                                         0.344978       0.010555
                                                         0.099466       0.017325
                          1       8    5fx2z            10.077428      -1.045795
                                                         5.847736       1.382114
                                                         2.494033       0.147734
                                                         0.988355       0.587859
                                                         0.344978       0.010555
                                                         0.099466       0.017325
                          1       8    5fxy2            10.077428      -1.045795
                                                         5.847736       1.382114
                                                         2.494033       0.147734
                                                         0.988355       0.587859
                                                         0.344978       0.010555
                                                         0.099466       0.017325
                          1       8    5fxyz            10.077428      -1.811371
                                                         5.847736       2.393892
                                                         2.494033       0.255883
                                                         0.988355       1.018201
                                                         0.344978       0.018282
                                                         0.099466       0.030008
                          1       8    5fxz2            10.077428      -1.045795
                                                         5.847736       1.382114
                                                         2.494033       0.147734
                                                         0.988355       0.587859
                                                         0.344978       0.010555
                                                         0.099466       0.017325
                          1       8    5fy3             10.077428      -0.467694
                                                         5.847736       0.618100
                                                         2.494033       0.066069
                                                         0.988355       0.262898
                                                         0.344978       0.004720
                                                         0.099466       0.007748
                          1       8    5fy2z            10.077428      -1.045795
                                                         5.847736       1.382114
                                                         2.494033       0.147734
                                                         0.988355       0.587859
                                                         0.344978       0.010555
                                                         0.099466       0.017325
                          1       8    5fyz2            10.077428      -1.045795
                                                         5.847736       1.382114
                                                         2.494033       0.147734
                                                         0.988355       0.587859
                                                         0.344978       0.010555
                                                         0.099466       0.017325
                          1       8    5fz3             10.077428      -0.467694
                                                         5.847736       0.618100
                                                         2.494033       0.066069
                                                         0.988355       0.262898
                                                         0.344978       0.004720
                                                         0.099466       0.007748

       Atomic covalent radius [Angstrom]:                                  1.150

       Atomic van der Waals radius [Angstrom]:                             1.630

     GTH Potential information for                                   GTH-PBE-q18

       Description:                       Goedecker-Teter-Hutter pseudopotential
                                           Goedecker et al., PRB 54, 1703 (1996)
                                          Hartwigsen et al., PRB 58, 3641 (1998)
                                                      Krack, TCA 114, 145 (2005)

       Gaussian exponent of the core charge distribution:               4.081633
       Electronic configuration (s p d ...):                           4   6   8

       Parameters of the local part of the GTH pseudopotential:

                          rloc        C1          C2          C3          C4
                        0.350000    2.102166    0.648484

       Parameters of the non-local part of the GTH pseudopotential:

                   l      r(l)      h(i,j,l)

                   0    0.261295    0.622658    9.970227
                                    9.970227  -12.871507
                   1    0.224253  -11.142708   12.429566
                                   12.429566  -14.706861
                   2    0.215348  -12.628146


 MOLECULE KIND INFORMATION


 All atoms are their own molecule, skipping detailed information


 TOTAL NUMBERS AND MAXIMUM NUMBERS

  Total number of            - Atomic kinds:                                   2
                             - Atoms:                                         32
                             - Shell sets:                                    32
                             - Shells:                                       256
                             - Primitive Cartesian functions:                192
                             - Cartesian basis functions:                    992
                             - Spherical basis functions:                    832

  Maximum angular momentum of- Orbital basis functions:                        3
                             - Local part of the GTH pseudopotential:          2
                             - Non-local part of the GTH pseudopotential:      3


 MODULE QUICKSTEP: ATOMIC COORDINATES IN ANGSTROM

   Atom Kind Element         X             Y             Z       Z(eff)     Mass
      1    1 Ni   28      0.876298      0.876298      7.370500  18.0000  58.6934
      2    1 Ni   28      0.876298      4.382298      7.370500  18.0000  58.6934
      3    1 Ni   28      2.629298      2.629298      7.370500  18.0000  58.6934
      4    1 Ni   28      2.629298      6.135298      7.370500  18.0000  58.6934
      5    1 Ni   28      4.382298      0.876298      7.370500  18.0000  58.6934
      6    1 Ni   28      4.382298      4.382298      7.370500  18.0000  58.6934
      7    1 Ni   28      6.135298      2.629298      7.370500  18.0000  58.6934
      8    1 Ni   28      6.135298      6.135298      7.370500  18.0000  58.6934
      9    2 Ni   28      0.876298      2.629298      9.123500  18.0000  58.6934
     10    2 Ni   28      0.876298      6.135298      9.123500  18.0000  58.6934
     11    2 Ni   28      2.629298      0.876298      9.123500  18.0000  58.6934
     12    2 Ni   28      2.629298      4.382298      9.123500  18.0000  58.6934
     13    2 Ni   28      4.382298      2.629298      9.123500  18.0000  58.6934
     14    2 Ni   28      4.382298      6.135298      9.123500  18.0000  58.6934
     15    2 Ni   28      6.135298      0.876298      9.123500  18.0000  58.6934
     16    2 Ni   28      6.135298      4.382298      9.123500  18.0000  58.6934
     17    2 Ni   28      0.876298      0.876298     10.876500  18.0000  58.6934
     18    2 Ni   28      0.876298      4.382298     10.876500  18.0000  58.6934
     19    2 Ni   28      2.629298      2.629298     10.876500  18.0000  58.6934
     20    2 Ni   28      2.629298      6.135298     10.876500  18.0000  58.6934
     21    2 Ni   28      4.382298      0.876298     10.876500  18.0000  58.6934
     22    2 Ni   28      4.382298      4.382298     10.876500  18.0000  58.6934
     23    2 Ni   28      6.135298      2.629298     10.876500  18.0000  58.6934
     24    2 Ni   28      6.135298      6.135298     10.876500  18.0000  58.6934
     25    1 Ni   28      0.876298      2.629298     12.629500  18.0000  58.6934
     26    1 Ni   28      0.876298      6.135298     12.629500  18.0000  58.6934
     27    1 Ni   28      2.629298      0.876298     12.629500  18.0000  58.6934
     28    1 Ni   28      2.629298      4.382298     12.629500  18.0000  58.6934
     29    1 Ni   28      4.382298      2.629298     12.629500  18.0000  58.6934
     30    1 Ni   28      4.382298      6.135298     12.629500  18.0000  58.6934
     31    1 Ni   28      6.135298      0.876298     12.629500  18.0000  58.6934
     32    1 Ni   28      6.135298      4.382298     12.629500  18.0000  58.6934



 SCF PARAMETERS         Density guess:                                    ATOMIC
                        --------------------------------------------------------
                        max_scf:                                             500
                        max_scf_history:                                       0
                        max_diis:                                              4
                        --------------------------------------------------------
                        eps_scf:                                        1.00E-04
                        eps_scf_history:                                0.00E+00
                        eps_diis:                                       1.00E-01
                        eps_eigval:                                     1.00E-05
                        --------------------------------------------------------
                        level_shift [a.u.]:                             0.000000
                        added MOs                                       534  553
                        --------------------------------------------------------
                        Mixing method:                            BROYDEN_MIXING
                                                charge density mixing in g-space
                        --------------------------------------------------------
                        Smear method:                                FERMI_DIRAC
                        Electronic temperature [K]:                       2000.0
                        Electronic temperature [a.u.]:                  6.33E-03
                        Accuracy threshold:                             1.00E-10
                        --------------------------------------------------------
                        No outer SCF

 PW_GRID| Information for grid number                                          1
 PW_GRID| Grid distributed over                                   128 processors
 PW_GRID| Real space group dimensions                                     8   16
 PW_GRID| the grid is blocked:                                               YES
 PW_GRID| Cutoff [a.u.]                                                    300.0
 PW_GRID| spherical cutoff:                                                   NO
 PW_GRID|   Bounds   1            -54      53                Points:         108
 PW_GRID|   Bounds   2            -54      53                Points:         108
 PW_GRID|   Bounds   3           -150     149                Points:         300
 PW_GRID| Volume element (a.u.^3)  0.1896E-02     Volume (a.u.^3)      6635.2971
 PW_GRID| Grid span                                                    FULLSPACE
 PW_GRID|   Distribution                         Average         Max         Min
 PW_GRID|   G-Vectors                            27337.5       28728       25272
 PW_GRID|   G-Rays                                 253.1         266         234
 PW_GRID|   Real Space Points                    27337.5       28728       25272

 PW_GRID| Information for grid number                                          2
 PW_GRID| Number of the reference grid                                         1
 PW_GRID| Grid distributed over                                   128 processors
 PW_GRID| Real space group dimensions                                     8   16
 PW_GRID| the grid is blocked:                                                NO
 PW_GRID| Cutoff [a.u.]                                                    100.0
 PW_GRID| spherical cutoff:                                                   NO
 PW_GRID|   Bounds   1            -30      29                Points:          60
 PW_GRID|   Bounds   2            -30      29                Points:          60
 PW_GRID|   Bounds   3            -90      89                Points:         180
 PW_GRID| Volume element (a.u.^3)  0.1024E-01     Volume (a.u.^3)      6635.2971
 PW_GRID| Grid span                                                    FULLSPACE
 PW_GRID|   Distribution                         Average         Max         Min
 PW_GRID|   G-Vectors                             5062.5       15960           0
 PW_GRID|   G-Rays                                  84.4         266           0
 PW_GRID|   Real Space Points                     5062.5        5760        3780

 PW_GRID| Information for grid number                                          3
 PW_GRID| Number of the reference grid                                         1
 PW_GRID| Grid distributed over                                   128 processors
 PW_GRID| Real space group dimensions                                     8   16
 PW_GRID| the grid is blocked:                                                NO
 PW_GRID| Cutoff [a.u.]                                                     33.3
 PW_GRID| spherical cutoff:                                                   NO
 PW_GRID|   Bounds   1            -18      17                Points:          36
 PW_GRID|   Bounds   2            -18      17                Points:          36
 PW_GRID|   Bounds   3            -50      49                Points:         100
 PW_GRID| Volume element (a.u.^3)  0.5120E-01     Volume (a.u.^3)      6635.2971
 PW_GRID| Grid span                                                    FULLSPACE
 PW_GRID|   Distribution                         Average         Max         Min
 PW_GRID|   G-Vectors                             1012.5        9576           0
 PW_GRID|   G-Rays                                  28.1         266           0
 PW_GRID|   Real Space Points                     1012.5        1500         800

 PW_GRID| Information for grid number                                          4
 PW_GRID| Number of the reference grid                                         1
 PW_GRID| Grid distributed over                                   128 processors
 PW_GRID| Real space group dimensions                                     8   16
 PW_GRID| the grid is blocked:                                                NO
 PW_GRID| Cutoff [a.u.]                                                     11.1
 PW_GRID| spherical cutoff:                                                   NO
 PW_GRID|   Bounds   1            -10       9                Points:          20
 PW_GRID|   Bounds   2            -10       9                Points:          20
 PW_GRID|   Bounds   3            -30      29                Points:          60
 PW_GRID| Volume element (a.u.^3)  0.2765         Volume (a.u.^3)      6635.2971
 PW_GRID| Grid span                                                    FULLSPACE
 PW_GRID|   Distribution                         Average         Max         Min
 PW_GRID|   G-Vectors                              187.5        3800           0
 PW_GRID|   G-Rays                                   9.4         190           0
 PW_GRID|   Real Space Points                      187.5         360         120

 PW_GRID| Information for grid number                                          5
 PW_GRID| Number of the reference grid                                         1
 PW_GRID| Grid distributed over                                   128 processors
 PW_GRID| Real space group dimensions                                     8   16
 PW_GRID| the grid is blocked:                                                NO
 PW_GRID| Cutoff [a.u.]                                                      3.7
 PW_GRID| spherical cutoff:                                                   NO
 PW_GRID|   Bounds   1             -6       5                Points:          12
 PW_GRID|   Bounds   2             -6       5                Points:          12
 PW_GRID|   Bounds   3            -18      17                Points:          36
 PW_GRID| Volume element (a.u.^3)   1.280         Volume (a.u.^3)      6635.2971
 PW_GRID| Grid span                                                    FULLSPACE
 PW_GRID|   Distribution                         Average         Max         Min
 PW_GRID|   G-Vectors                               40.5        1296           0
 PW_GRID|   G-Rays                                   3.4         108           0
 PW_GRID|   Real Space Points                       40.5          72           0

 POISSON| Solver                                                        PERIODIC
 POISSON| Periodicity                                                        XYZ

 RS_GRID| Information for grid number                                          1
 RS_GRID|   Bounds   1            -54      53                Points:         108
 RS_GRID|   Bounds   2            -54      53                Points:         108
 RS_GRID|   Bounds   3           -150     149                Points:         300
 RS_GRID| Real space distribution over                                  8 groups
 RS_GRID| Real space distribution along direction                              2
 RS_GRID| Border size                                                         28
 RS_GRID| Real space distribution over                                 16 groups
 RS_GRID| Real space distribution along direction                              3
 RS_GRID| Border size                                                         28
 RS_GRID|   Distribution                         Average         Max         Min
 RS_GRID|   Planes                                  69.5          70          69
 RS_GRID|   Distribution                         Average         Max         Min
 RS_GRID|   Planes                                  74.8          75          74

 RS_GRID| Information for grid number                                          2
 RS_GRID|   Bounds   1            -30      29                Points:          60
 RS_GRID|   Bounds   2            -30      29                Points:          60
 RS_GRID|   Bounds   3            -90      89                Points:         180
 RS_GRID| Real space fully replicated
 RS_GRID| Group size                                                           1

 RS_GRID| Information for grid number                                          3
 RS_GRID|   Bounds   1            -18      17                Points:          36
 RS_GRID|   Bounds   2            -18      17                Points:          36
 RS_GRID|   Bounds   3            -50      49                Points:         100
 RS_GRID| Real space fully replicated
 RS_GRID| Group size                                                           1

 RS_GRID| Information for grid number                                          4
 RS_GRID|   Bounds   1            -10       9                Points:          20
 RS_GRID|   Bounds   2            -10       9                Points:          20
 RS_GRID|   Bounds   3            -30      29                Points:          60
 RS_GRID| Real space fully replicated
 RS_GRID| Group size                                                           1

 RS_GRID| Information for grid number                                          5
 RS_GRID|   Bounds   1             -6       5                Points:          12
 RS_GRID|   Bounds   2             -6       5                Points:          12
 RS_GRID|   Bounds   3            -18      17                Points:          36
 RS_GRID| Real space fully replicated
 RS_GRID| Group size                                                           1

 Spin 1

 Number of electrons:                                                        297.600
 Number of occupied orbitals:                                                298
 Number of molecular orbitals:                                               832

 Spin 2

 Number of electrons:                                                        278.400
 Number of occupied orbitals:                                                279
 Number of molecular orbitals:                                               832

 Number of orbital functions:                                                832
 Number of independent orbital functions:                                    832

 Extrapolation method: initial_guess

 Atomic guess: The first density matrix is obtained in terms of atomic orbitals
               and electronic configurations assigned to each atomic kind

 Guess for atomic kind: Ni_i

 Electronic structure
    Total number of core electrons                                         10.00
    Total number of valence electrons                                      18.00
    Total number of electrons                                              28.00
    Multiplicity                                                         doublet
    Alpha Electrons
    S   [  1.00  1.00] 1.00  1.00
    P   [  3.00] 3.00
    D      4.35
    Beta Electrons
    S   [  1.00  1.00] 1.00  1.00
    P   [  3.00] 3.00
    D      3.65


 *******************************************************************************
                  Iteration          Convergence                     Energy [au]
 *******************************************************************************
                          1         1.51729                    -167.067424631347
                          2         15.3902                    -156.642654318634
                          3         2.33433                    -168.319355313541
                          4        0.206730                    -168.609905008081
                          5        0.814175E-01                -168.612873080494
                          6        0.173318E-01                -168.613470181066
                          7        0.290432E-02                -168.613543571401
                          8        0.311825E-02                -168.613543401474
                          9        0.179670E-03                -168.613544404477
                         10        0.169386E-02                -168.613544207811
                         11        0.473341E-03                -168.613544360253
                         12        0.165417E-03                -168.613544400419
                         13        0.162622E-03                -168.613544401489
                         14        0.158325E-03                -168.613544403900
                         15        0.177007E-03                -168.613544402509
                         16        0.138916E-03                -168.613544404900
                         17        0.934549E-04                -168.613544406149
                         18        0.119916E-03                -168.613544405789
                         19        0.131607E-03                -168.613544405591
                         20        0.169309E-03                -168.613544404773
                         21        0.551337E-04                -168.613544406656
                         22        0.382664E-04                -168.613544406759
                         23        0.378942E-04                -168.613544406765
                         24        0.381089E-04                -168.613544406765
                         25        0.390835E-04                -168.613544406759
                         26        0.308614E-04                -168.613544406841
                         27        0.205044E-04                -168.613544406892
                         28        0.200942E-04                -168.613544406893
                         29        0.199375E-04                -168.613544406893
                         30        0.200198E-04                -168.613544406894
                         31        0.161325E-04                -168.613544406903
                         32        0.330614E-05                -168.613544406925
                         33        0.238713E-05                -168.613544406926
                         34        0.265439E-05                -168.613544406926
                         35        0.277073E-05                -168.613544406926
                         36        0.335175E-05                -168.613544406926
                         37        0.148809E-05                -168.613544406927
                         38        0.133447E-05                -168.613544406927
                         39        0.918735E-06                -168.613544406927

 Energy components [Hartree]           Total Energy ::         -168.613544406927
                                        Band Energy ::          -26.569761966525
                                     Kinetic Energy ::           97.306723392622
                                   Potential Energy ::         -265.920267799548
                                      Virial (-V/T) ::            2.732804666812
                                        Core Energy ::         -299.567979157577
                                          XC Energy ::          -16.227189041387
                                     Coulomb Energy ::          147.181623792037
                       Total Pseudopotential Energy ::         -396.961043505191
                       Local Pseudopotential Energy ::         -362.648291121960
                    Nonlocal Pseudopotential Energy ::          -34.312752383230
                                        Confinement ::            0.863409549921

 Orbital energies  State     Spin  L     Occupation   Energy[a.u.]    Energy[eV]

                       1    alpha  0          1.000      -4.172666   -113.544030
                       2    alpha  0          1.000      -0.181431     -4.936983
                       1     beta  0          1.000      -4.140640   -112.672541
                       2     beta  0          1.000      -0.176372     -4.799339

                       1    alpha  1          3.000      -2.578739    -70.171064
                       1     beta  1          3.000      -2.547579    -69.323162

                       1    alpha  2          4.350      -0.327039     -8.899191
                       1     beta  2          3.650      -0.300569     -8.178887


 Total Electron Density at R=0:                                         0.030422

 Guess for atomic kind: Ni_b

 Electronic structure
    Total number of core electrons                                         10.00
    Total number of valence electrons                                      18.00
    Total number of electrons                                              28.00
    Multiplicity                                                         doublet
    Alpha Electrons
    S   [  1.00  1.00] 1.00  1.00
    P   [  3.00] 3.00
    D      4.25
    Beta Electrons
    S   [  1.00  1.00] 1.00  1.00
    P   [  3.00] 3.00
    D      3.75


 *******************************************************************************
                  Iteration          Convergence                     Energy [au]
 *******************************************************************************
                          1         1.51687                    -167.065012761055
                          2         14.9817                    -156.620431300845
                          3         2.25575                    -168.317311438693
                          4        0.189210                    -168.607926092750
                          5        0.708658E-01                -168.610773319290
                          6        0.122256E-01                -168.611238205502
                          7        0.598421E-02                -168.611272268995
                          8        0.528277E-02                -168.611272438110
                          9        0.104644E-02                -168.611275321653
                         10        0.260234E-02                -168.611274926630
                         11        0.975322E-03                -168.611275328217
                         12        0.161067E-03                -168.611275447773
                         13        0.147413E-03                -168.611275446839
                         14        0.115114E-03                -168.611275449434
                         15        0.167217E-03                -168.611275445436
                         16        0.255374E-04                -168.611275450531
                         17        0.418369E-04                -168.611275450414
                         18        0.393709E-04                -168.611275450477
                         19        0.239931E-04                -168.611275450542
                         20        0.173885E-04                -168.611275450557
                         21        0.851368E-05                -168.611275450578
                         22        0.849928E-05                -168.611275450580
                         23        0.544937E-05                -168.611275450584
                         24        0.540003E-05                -168.611275450586
                         25        0.613371E-05                -168.611275450584
                         26        0.311593E-06                -168.611275450588

 Energy components [Hartree]           Total Energy ::         -168.611275450588
                                        Band Energy ::          -26.568680144499
                                     Kinetic Energy ::           97.303659243130
                                   Potential Energy ::         -265.914934693718
                                      Virial (-V/T) ::            2.732835915546
                                        Core Energy ::         -299.566189183323
                                          XC Energy ::          -16.224592878785
                                     Coulomb Energy ::          147.179506611520
                       Total Pseudopotential Energy ::         -396.956189041778
                       Local Pseudopotential Energy ::         -362.645043136649
                    Nonlocal Pseudopotential Energy ::          -34.311145905129
                                        Confinement ::            0.863406153250

 Orbital energies  State     Spin  L     Occupation   Energy[a.u.]    Energy[eV]

                       1    alpha  0          1.000      -4.168335   -113.426177
                       2    alpha  0          1.000      -0.180730     -4.917906
                       1     beta  0          1.000      -4.145459   -112.803683
                       2     beta  0          1.000      -0.177117     -4.819606

                       1    alpha  1          3.000      -2.574525    -70.056390
                       1     beta  1          3.000      -2.552268    -69.450746

                       1    alpha  2          4.250      -0.323446     -8.801405
                       1     beta  2          3.750      -0.304537     -8.286881


 Total Electron Density at R=0:                                         0.030429

 Spin 1
 Re-scaling the density matrix to get the right number of electrons for spin 1
                  # Electrons              Trace(P)               Scaling factor
                        297.600             297.600                        1.000

 Spin 2
 Re-scaling the density matrix to get the right number of electrons for spin 2
                  # Electrons              Trace(P)               Scaling factor
                        278.400             278.400                        1.000


 SCF WAVEFUNCTION OPTIMIZATION

  Step     Update method      Time    Convergence         Total energy    Change
  ------------------------------------------------------------------------------
     1 NoMix/Diag. 0.10E+00    1.6     0.87318318     -5426.4441344177 -5.43E+03
     2 Broy./Diag. 0.10E+00    1.5     0.10198373     -5321.5797259642  1.05E+02
[...]
   134 Broy./Diag. 0.10E+00    1.5     0.02386120     -5417.8910237056  9.84E-02
   135 Broy./Diag. 0.10E+00    1.5     0.06626983     -5417.8864975034  4.53E-03
   136 Broy./Diag. 0.10E+00    1.5     0.02478675     -5418.0140398311 -1.28E-01
   137 Broy./Diag. 0.10E+00    1.5     0.06823883     -5418.0478118321 -3.38E-02
   138 Broy./Diag. 0.10E+00    1.5     0.00844836     -5417.7094445279  3.38E-01
   139 Broy./Diag. 0.10E+00    1.5     0.09977949     -5417.7280207506 -1.86E-02
   140 Broy./Diag. 0.10E+00    1.5     0.04857781     -5417.8447272819 -1.17E-01
   141 Broy./Diag. 0.10E+00    1.5     0.17148195     -5417.9570600967 -1.12E-01
   142 Broy./Diag. 0.10E+00    1.5     0.05576415     -5417.5915000248  3.66E-01
   143 Broy./Diag. 0.10E+00    1.5     0.15365453     -5417.6285960658 -3.71E-02
   144 Broy./Diag. 0.10E+00    1.5     0.06425955     -5417.8053122015 -1.77E-01
   145 Broy./Diag. 0.10E+00    1.5     0.07095107     -5417.9929649385 -1.88E-01
   146 Broy./Diag. 0.10E+00    1.5     0.13669210     -5418.2641716243 -2.71E-01
   147 Broy./Diag. 0.10E+00    1.5     0.14109641     -5418.0327562748  2.31E-01
   148 Broy./Diag. 0.10E+00    1.5     0.12711576     -5417.9812333892  5.15E-02
   149 Broy./Diag. 0.10E+00    1.5     0.11954297     -5417.6338541055  3.47E-01
   150 Broy./Diag. 0.10E+00    1.5     0.16500285     -5417.9360915712 -3.02E-01
   151 Broy./Diag. 0.10E+00    1.5     0.19510190     -5418.2032990785 -2.67E-01
   152 Broy./Diag. 0.10E+00    1.5     0.08391911     -5417.9916769531  2.12E-01
   153 Broy./Diag. 0.10E+00    1.5     0.17281453     -5418.4457252006 -4.54E-01
   154 Broy./Diag. 0.10E+00    1.5     0.05043609     -5418.4412534934  4.47E-03
   155 Broy./Diag. 0.10E+00    1.5     0.11708199     -5418.2393988414  2.02E-01
   156 Broy./Diag. 0.10E+00    1.5     0.14906819     -5418.1377518811  1.02E-01
   157 Broy./Diag. 0.10E+00    1.5     0.11001101     -5418.0137919194  1.24E-01
   158 Broy./Diag. 0.10E+00    1.5     0.14825705     -5417.0641986557  9.50E-01
   159 Broy./Diag. 0.10E+00    1.5     0.09624728     -5417.7221913320 -6.58E-01
   160 Broy./Diag. 0.10E+00    1.5     0.13863884     -5417.3906323161  3.32E-01
   161 Broy./Diag. 0.10E+00    1.5     0.17237105     -5417.9313365038 -5.41E-01
   162 Broy./Diag. 0.10E+00    1.5     0.21862894     -5418.0775841647 -1.46E-01
   163 Broy./Diag. 0.10E+00    1.5     0.26448804     -5418.4264869550 -3.49E-01
   164 Broy./Diag. 0.10E+00    1.5     0.22405184     -5417.4947705424  9.32E-01
   165 Broy./Diag. 0.10E+00    1.5     0.07894038     -5417.0275611530  4.67E-01
   166 Broy./Diag. 0.10E+00    1.5     0.36209023     -5417.1558743057 -1.28E-01
   167 Broy./Diag. 0.10E+00    1.5     0.14082402     -5417.9855784291 -8.30E-01
   168 Broy./Diag. 0.10E+00    1.5     0.10683920     -5418.3893106428 -4.04E-01
   169 Broy./Diag. 0.10E+00    1.5     0.13007910     -5417.9234818626  4.66E-01
   170 Broy./Diag. 0.10E+00    1.5     0.06632079     -5418.0069755968 -8.35E-02
   171 Broy./Diag. 0.10E+00    1.5     0.09277251     -5418.2762645591 -2.69E-01
   172 Broy./Diag. 0.10E+00    1.5     0.08436593     -5417.8578984152  4.18E-01
   173 Broy./Diag. 0.10E+00    1.5     0.12343718     -5417.9718285310 -1.14E-01
   174 Broy./Diag. 0.10E+00    1.5     0.41481405     -5418.2595127035 -2.88E-01
   175 Broy./Diag. 0.10E+00    1.5     0.17490696     -5417.0189860769  1.24E+00
   176 Broy./Diag. 0.10E+00    1.5     0.29687357     -5417.0071433170  1.18E-02
   177 Broy./Diag. 0.10E+00    1.5     0.07593627     -5416.5462564092  4.61E-01
   178 Broy./Diag. 0.10E+00    1.5     0.09645141     -5416.8820410699 -3.36E-01
   179 Broy./Diag. 0.10E+00    1.5     0.44763520     -5417.1549070469 -2.73E-01
   180 Broy./Diag. 0.10E+00    1.5     0.16030759     -5418.5346394138 -1.38E+00
   181 Broy./Diag. 0.10E+00    1.5     0.18458658     -5419.5067797446 -9.72E-01
   182 Broy./Diag. 0.10E+00    1.5     0.11247541     -5419.6929755827 -1.86E-01
   183 Broy./Diag. 0.10E+00    1.5     0.17294694     -5419.5095110632  1.83E-01
   184 Broy./Diag. 0.10E+00    1.5     0.34417829     -5418.8704918425  6.39E-01
   185 Broy./Diag. 0.10E+00    1.5     0.16616081     -5418.4342154256  4.36E-01
   186 Broy./Diag. 0.10E+00    1.5     0.15726552     -5418.5861805069 -1.52E-01
   187 Broy./Diag. 0.10E+00    1.5     0.13525871     -5418.0622761641  5.24E-01
   188 Broy./Diag. 0.10E+00    1.5     0.21652861     -5418.1252966053 -6.30E-02
   189 Broy./Diag. 0.10E+00    1.5     0.15919421     -5417.4006532435  7.25E-01
   190 Broy./Diag. 0.10E+00    1.5     0.27785803     -5417.8141727464 -4.14E-01
   191 Broy./Diag. 0.10E+00    1.5     0.27369956     -5418.4145359703 -6.00E-01
   192 Broy./Diag. 0.10E+00    1.5     0.36993903     -5417.3956924824  1.02E+00
   193 Broy./Diag. 0.10E+00    1.5     0.24291733     -5417.5555567902 -1.60E-01
   194 Broy./Diag. 0.10E+00    1.5     0.28209691     -5417.6731992503 -1.18E-01
   195 Broy./Diag. 0.10E+00    1.5     0.10870869     -5419.0106887925 -1.34E+00
   196 Broy./Diag. 0.10E+00    1.5     0.07833956     -5419.5665236590 -5.56E-01
   197 Broy./Diag. 0.10E+00    1.5     0.17428850     -5419.6726103326 -1.06E-01
   198 Broy./Diag. 0.10E+00    1.5     0.50365956     -5419.1927770692  4.80E-01
   199 Broy./Diag. 0.10E+00    1.5     0.20564136     -5418.9099548923  2.83E-01
   200 Broy./Diag. 0.10E+00    1.5     0.23651295     -5418.4730255099  4.37E-01
   201 Broy./Diag. 0.10E+00    1.5     0.14555779     -5418.6022360001 -1.29E-01
   202 Broy./Diag. 0.10E+00    1.5     0.08434699     -5418.4774585882  1.25E-01
   203 Broy./Diag. 0.10E+00    1.5     0.11589467     -5418.3679904343  1.09E-01
   204 Broy./Diag. 0.10E+00    1.5     0.06196806     -5418.7153916111 -3.47E-01
   205 Broy./Diag. 0.10E+00    1.5     0.32318760     -5418.5006594041  2.15E-01
   206 Broy./Diag. 0.10E+00    1.5     0.25485693     -5418.7021077364 -2.01E-01
   207 Broy./Diag. 0.10E+00    1.5     0.11962026     -5417.6606686510  1.04E+00
   208 Broy./Diag. 0.10E+00    1.5     0.10063791     -5417.6430860450  1.76E-02
   209 Broy./Diag. 0.10E+00    1.5     0.14296993     -5417.4168159371  2.26E-01
   210 Broy./Diag. 0.10E+00    1.5     0.19818608     -5416.9327167391  4.84E-01
   211 Broy./Diag. 0.10E+00    1.5     0.24056098     -5417.7338981178 -8.01E-01
   212 Broy./Diag. 0.10E+00    1.5     0.16366855     -5417.8904368872 -1.57E-01
   213 Broy./Diag. 0.10E+00    1.5     0.28871497     -5418.4879016418 -5.97E-01
   214 Broy./Diag. 0.10E+00    1.5     0.21944255     -5418.5529189322 -6.50E-02
   215 Broy./Diag. 0.10E+00    1.5     0.11203866     -5418.8385516717 -2.86E-01
   216 Broy./Diag. 0.10E+00    1.5     0.12217027     -5418.2702498231  5.68E-01
   217 Broy./Diag. 0.10E+00    1.5     0.24156438     -5418.4238277717 -1.54E-01
   218 Broy./Diag. 0.10E+00    1.5     0.03515934     -5417.7266035454  6.97E-01
   219 Broy./Diag. 0.10E+00    1.5     0.07496492     -5417.5730028015  1.54E-01
   220 Broy./Diag. 0.10E+00    1.5     0.18671500     -5418.0035844153 -4.31E-01
   221 Broy./Diag. 0.10E+00    1.5     0.32097471     -5418.7724812802 -7.69E-01
   222 Broy./Diag. 0.10E+00    1.5     0.13795428     -5418.2540331527  5.18E-01
   223 Broy./Diag. 0.10E+00    1.5     0.29547796     -5418.2718468172 -1.78E-02
   224 Broy./Diag. 0.10E+00    1.5     0.12028078     -5418.7656604589 -4.94E-01
   225 Broy./Diag. 0.10E+00    1.5     0.50724866     -5418.5499059849  2.16E-01
   226 Broy./Diag. 0.10E+00    1.5     0.44552514     -5420.3419768975 -1.79E+00
   227 Broy./Diag. 0.10E+00    1.5     0.29093213     -5417.9756140844  2.37E+00
   228 Broy./Diag. 0.10E+00    1.5     0.12513732     -5417.2359162749  7.40E-01
   229 Broy./Diag. 0.10E+00    1.5     0.35765003     -5417.1401115593  9.58E-02
   230 Broy./Diag. 0.10E+00    1.5     0.17640065     -5418.8164190133 -1.68E+00
   231 Broy./Diag. 0.10E+00    1.5     0.26713446     -5418.1747516378  6.42E-01
   232 Broy./Diag. 0.10E+00    1.5     0.34172080     -5418.3953106959 -2.21E-01
   233 Broy./Diag. 0.10E+00    1.5     0.07324876     -5418.2420147503  1.53E-01
   234 Broy./Diag. 0.10E+00    1.5     0.13295842     -5418.4658291415 -2.24E-01
   235 Broy./Diag. 0.10E+00    1.5     0.32711313     -5418.1542935551  3.12E-01
   236 Broy./Diag. 0.10E+00    1.5     0.21051772     -5418.5844471529 -4.30E-01
   237 Broy./Diag. 0.10E+00    1.5     0.28248422     -5419.6745909131 -1.09E+00
   238 Broy./Diag. 0.10E+00    1.5     0.08531567     -5418.8169234282  8.58E-01
   239 Broy./Diag. 0.10E+00    1.5     0.37327551     -5419.0760477356 -2.59E-01
   240 Broy./Diag. 0.10E+00    1.5     0.29937821     -5419.1145882644 -3.85E-02
   241 Broy./Diag. 0.10E+00    1.5     0.33852279     -5417.9668386035  1.15E+00
   242 Broy./Diag. 0.10E+00    1.5     0.35360529     -5417.7897601199  1.77E-01
   243 Broy./Diag. 0.10E+00    1.5     0.12725318     -5417.2765878828  5.13E-01
   244 Broy./Diag. 0.10E+00    1.5     0.40685636     -5417.7081984122 -4.32E-01
   245 Broy./Diag. 0.10E+00    1.5     0.42151668     -5418.8313225134 -1.12E+00
   246 Broy./Diag. 0.10E+00    1.5     0.30605400     -5420.5338869041 -1.70E+00
   247 Broy./Diag. 0.10E+00    1.5     0.25144189     -5420.2596114651  2.74E-01
   248 Broy./Diag. 0.10E+00    1.5     0.30893869     -5419.9498769733  3.10E-01
   249 Broy./Diag. 0.10E+00    1.5     0.27543008     -5420.6573170792 -7.07E-01
   250 Broy./Diag. 0.10E+00    1.5     0.17878898     -5420.0004773818  6.57E-01
   251 Broy./Diag. 0.10E+00    1.5     0.18621694     -5419.5867075139  4.14E-01
   252 Broy./Diag. 0.10E+00    1.5     0.46664925     -5419.9432507872 -3.57E-01
   253 Broy./Diag. 0.10E+00    1.5     0.23886116     -5417.6436205056  2.30E+00
   254 Broy./Diag. 0.10E+00    1.5     0.26574378     -5417.9637337766 -3.20E-01
   255 Broy./Diag. 0.10E+00    1.5     0.26376159     -5417.4706952555  4.93E-01
   256 Broy./Diag. 0.10E+00    1.5     0.15403265     -5418.4860163594 -1.02E+00
   257 Broy./Diag. 0.10E+00    1.5     0.30222189     -5418.8248295694 -3.39E-01
   258 Broy./Diag. 0.10E+00    1.5     0.11642152     -5418.6790157463  1.46E-01
   259 Broy./Diag. 0.10E+00    1.5     0.19985393     -5418.4663239186  2.13E-01
   260 Broy./Diag. 0.10E+00    1.5     0.05578839     -5419.4565215811 -9.90E-01
   261 Broy./Diag. 0.10E+00    1.5     0.45336112     -5419.2841859784  1.72E-01
   262 Broy./Diag. 0.10E+00    1.5     0.50373298     -5419.0109845733  2.73E-01
   263 Broy./Diag. 0.10E+00    1.5     0.26298231     -5419.2510484568 -2.40E-01
   264 Broy./Diag. 0.10E+00    1.5     0.19992468     -5419.8411815798 -5.90E-01
   265 Broy./Diag. 0.10E+00    1.5     0.65548539     -5419.5134399079  3.28E-01
   266 Broy./Diag. 0.10E+00    1.5     0.11735173     -5418.4122891062  1.10E+00
   267 Broy./Diag. 0.10E+00    1.5     0.29595002     -5418.1102532364  3.02E-01
   268 Broy./Diag. 0.10E+00    1.5     0.46810923     -5417.5282603920  5.82E-01
   269 Broy./Diag. 0.10E+00    1.5     0.19940268     -5418.6339680442 -1.11E+00
   270 Broy./Diag. 0.10E+00    1.5     0.80983777     -5419.1562826490 -5.22E-01
   271 Broy./Diag. 0.10E+00    1.5     0.12268604     -5419.5021195200 -3.46E-01
   272 Broy./Diag. 0.10E+00    1.5     0.27071860     -5420.6950300393 -1.19E+00
   273 Broy./Diag. 0.10E+00    1.5     0.16195506     -5419.3533266098  1.34E+00
   274 Broy./Diag. 0.10E+00    1.5     0.12941742     -5418.7982987330  5.55E-01
   275 Broy./Diag. 0.10E+00    1.5     0.29993113     -5418.5502894171  2.48E-01
   276 Broy./Diag. 0.10E+00    1.5     0.09546011     -5418.6170613509 -6.68E-02
   277 Broy./Diag. 0.10E+00    1.5     0.16120763     -5418.6355458118 -1.85E-02
   278 Broy./Diag. 0.10E+00    1.5     0.62694995     -5418.9364863419 -3.01E-01
   279 Broy./Diag. 0.10E+00    1.5     0.25395381     -5420.4243581303 -1.49E+00
   280 Broy./Diag. 0.10E+00    1.5     0.50915478     -5419.8389876647  5.85E-01
   281 Broy./Diag. 0.10E+00    1.5     0.31621103     -5420.5341428666 -6.95E-01
   282 Broy./Diag. 0.10E+00    1.5     0.19317379     -5419.7499031536  7.84E-01
   283 Broy./Diag. 0.10E+00    1.5     0.13365065     -5419.8147020122 -6.48E-02
   284 Broy./Diag. 0.10E+00    1.5     0.45076055     -5420.3553845717 -5.41E-01
   285 Broy./Diag. 0.10E+00    1.5     0.54505378     -5421.0034426574 -6.48E-01
   286 Broy./Diag. 0.10E+00    1.5     0.16434817     -5420.4574240873  5.46E-01
   287 Broy./Diag. 0.10E+00    1.5     0.46163430     -5420.1979302904  2.59E-01
   288 Broy./Diag. 0.10E+00    1.5     0.56636267     -5422.3384086610 -2.14E+00
   289 Broy./Diag. 0.10E+00    1.5     0.35135757     -5419.5706068317  2.77E+00
   290 Broy./Diag. 0.10E+00    1.5     0.37235434     -5420.3184342840 -7.48E-01
   291 Broy./Diag. 0.10E+00    1.5     0.15164029     -5417.6870273184  2.63E+00
   292 Broy./Diag. 0.10E+00    1.5     0.12971585     -5418.5065288887 -8.20E-01
   293 Broy./Diag. 0.10E+00    1.5     0.24060100     -5418.4076422467  9.89E-02
   294 Broy./Diag. 0.10E+00    1.5     0.57721904     -5416.8587724715  1.55E+00
   295 Broy./Diag. 0.10E+00    1.5     0.20367714     -5417.3862718822 -5.27E-01
   296 Broy./Diag. 0.10E+00    1.5     0.62616777     -5418.0619960714 -6.76E-01
   297 Broy./Diag. 0.10E+00    1.5     0.73830506     -5417.4675386114  5.94E-01
   298 Broy./Diag. 0.10E+00    1.5     0.40676749     -5417.7659680984 -2.98E-01
   299 Broy./Diag. 0.10E+00    1.5     0.27316388     -5416.4175934545  1.35E+00
   300 Broy./Diag. 0.10E+00    1.5     0.70277958     -5415.7700600161  6.48E-01
   301 Broy./Diag. 0.10E+00    1.5     0.25415418     -5417.4401633471 -1.67E+00
   302 Broy./Diag. 0.10E+00    1.5     0.39698338     -5418.9163048181 -1.48E+00
   303 Broy./Diag. 0.10E+00    1.5     0.85945994     -5417.9610984063  9.55E-01
   304 Broy./Diag. 0.10E+00    1.5     0.63934710     -5422.4249206676 -4.46E+00
   305 Broy./Diag. 0.10E+00    1.5     0.54215432     -5424.3512370012 -1.93E+00
   306 Broy./Diag. 0.10E+00    1.5     0.53644274     -5425.4949325941 -1.14E+00
   307 Broy./Diag. 0.10E+00    1.5     0.51159768     -5420.5271190081  4.97E+00
   308 Broy./Diag. 0.10E+00    1.5     0.51984132     -5422.5029789382 -1.98E+00
   309 Broy./Diag. 0.10E+00    1.5     1.20509357     -5420.0423670809  2.46E+00
   310 Broy./Diag. 0.10E+00    1.5     0.40230848     -5415.2414782098  4.80E+00
   311 Broy./Diag. 0.10E+00    1.5     0.81489081     -5417.1913497545 -1.95E+00
   312 Broy./Diag. 0.10E+00    1.5     1.81317853     -5416.9716170273  2.20E-01
   313 Broy./Diag. 0.10E+00    1.5     1.05894564     -5423.7499945993 -6.78E+00
   314 Broy./Diag. 0.10E+00    1.5     0.57116425     -5416.4434621380  7.31E+00
   315 Broy./Diag. 0.10E+00    1.5     0.68738424     -5417.8238554391 -1.38E+00
   316 Broy./Diag. 0.10E+00    1.5     1.05350722     -5417.3240827938  5.00E-01
   317 Broy./Diag. 0.10E+00    1.5     0.26046453     -5416.3466188922  9.77E-01
   318 Broy./Diag. 0.10E+00    1.5     1.65823530     -5415.8252180168  5.21E-01
   319 Broy./Diag. 0.10E+00    1.5     0.44229970     -5419.9736954671 -4.15E+00
   320 Broy./Diag. 0.10E+00    1.5     0.55012048     -5416.8334770590  3.14E+00
   321 Broy./Diag. 0.10E+00    1.5     0.35700944     -5416.6885916927  1.45E-01
   322 Broy./Diag. 0.10E+00    1.5     1.73997421     -5419.1127671019 -2.42E+00
   323 Broy./Diag. 0.10E+00    1.5     0.81520058     -5425.1516257037 -6.04E+00
   324 Broy./Diag. 0.10E+00    1.5     0.65349749     -5423.3326060106  1.82E+00
   325 Broy./Diag. 0.10E+00    1.5     0.40378719     -5419.0785954337  4.25E+00
   326 Broy./Diag. 0.10E+00    1.5     2.33680353     -5420.8357469590 -1.76E+00
   327 Broy./Diag. 0.10E+00    1.5     0.51827398     -5419.8077735838  1.03E+00
   328 Broy./Diag. 0.10E+00    1.5     2.92358642     -5419.8240946718 -1.63E-02
   329 Broy./Diag. 0.10E+00    1.5     0.36165125     -5422.7401264049 -2.92E+00
   330 Broy./Diag. 0.10E+00    1.5     0.46938213     -5420.8224766022  1.92E+00
   331 Broy./Diag. 0.10E+00    1.5     0.54469457     -5420.2292785789  5.93E-01
   332 Broy./Diag. 0.10E+00    1.5     0.66553286     -5416.4478232398  3.78E+00
   333 Broy./Diag. 0.10E+00    1.5     1.42212294     -5413.9114174121  2.54E+00
   334 Broy./Diag. 0.10E+00    1.5     0.52592768     -5414.0616874574 -1.50E-01
   335 Broy./Diag. 0.10E+00    1.5     0.54689345     -5417.8202456220 -3.76E+00
   336 Broy./Diag. 0.10E+00    1.5     1.96951562     -5419.7916373301 -1.97E+00
   337 Broy./Diag. 0.10E+00    1.5     2.08403029     -5415.7488274169  4.04E+00
   338 Broy./Diag. 0.10E+00    1.5     3.77449384     -5414.9011047023  8.48E-01
   339 Broy./Diag. 0.10E+00    1.5     1.00206371     -5412.9528200895  1.95E+00
   340 Broy./Diag. 0.10E+00    1.5     1.74224580     -5412.9675009314 -1.47E-02
   341 Broy./Diag. 0.10E+00    1.5     1.44492673     -5413.0224804702 -5.50E-02
   342 Broy./Diag. 0.10E+00    1.5     1.70907302     -5411.5631788751  1.46E+00
   343 Broy./Diag. 0.10E+00    1.5     3.85719584     -5412.0152344182 -4.52E-01
   344 Broy./Diag. 0.10E+00    1.5     0.26300567     -5412.0485645529 -3.33E-02
   345 Broy./Diag. 0.10E+00    1.5     0.43172234     -5412.9770377840 -9.28E-01
   346 Broy./Diag. 0.10E+00    1.5     0.94768132     -5415.5116198221 -2.53E+00
   347 Broy./Diag. 0.10E+00    1.5     1.57124519     -5418.0678186309 -2.56E+00
   348 Broy./Diag. 0.10E+00    1.5     1.84650052     -5417.4136313971  6.54E-01
   349 Broy./Diag. 0.10E+00    1.5     1.66352518     -5422.1652038583 -4.75E+00
   350 Broy./Diag. 0.10E+00    1.5     1.35636223     -5420.2229261093  1.94E+00
   351 Broy./Diag. 0.10E+00    1.5     1.83522740     -5418.3014863894  1.92E+00
   352 Broy./Diag. 0.10E+00    1.5     3.05588453     -5418.8616816932 -5.60E-01
   353 Broy./Diag. 0.10E+00    1.5     0.56631437     -5418.6048603849  2.57E-01
   354 Broy./Diag. 0.10E+00    1.5     0.16440845     -5419.0492376885 -4.44E-01
   355 Broy./Diag. 0.10E+00    1.5     0.11177197     -5418.9555769833  9.37E-02
   356 Broy./Diag. 0.10E+00    1.5     6.90560966     -5418.6162935116  3.39E-01
   357 Broy./Diag. 0.10E+00    1.5     2.10930027     -5419.5965227857 -9.80E-01
   358 Broy./Diag. 0.10E+00    1.5     1.95117365     -5418.6753690328  9.21E-01
   359 Broy./Diag. 0.10E+00    1.5     4.37871641     -5418.5307862517  1.45E-01
   360 Broy./Diag. 0.10E+00    1.5     1.82265247     -5419.6454222711 -1.11E+00
   361 Broy./Diag. 0.10E+00    1.5     4.92005012     -5414.8198963367  4.83E+00
   362 Broy./Diag. 0.10E+00    1.5     3.18608272     -5415.1033517587 -2.83E-01
   363 Broy./Diag. 0.10E+00    1.5     4.35159137     -5415.0627024374  4.06E-02
   364 Broy./Diag. 0.10E+00    1.5     0.44379909     -5415.9833306766 -9.21E-01
   365 Broy./Diag. 0.10E+00    1.5     0.53521643     -5413.7450339833  2.24E+00
   366 Broy./Diag. 0.10E+00    1.5     0.27427709     -5411.2195893476  2.53E+00
   367 Broy./Diag. 0.10E+00    1.5     0.88921526     -5412.7380899705 -1.52E+00
   368 Broy./Diag. 0.10E+00    1.5     0.69202166     -5413.4993484192 -7.61E-01
   369 Broy./Diag. 0.10E+00    1.5     0.59223836     -5415.1039010344 -1.60E+00
   370 Broy./Diag. 0.10E+00    1.5     0.38832506     -5422.7762468141 -7.67E+00
   371 Broy./Diag. 0.10E+00    1.5     0.44341138     -5415.0984201454  7.68E+00
   372 Broy./Diag. 0.10E+00    1.5     0.71597549     -5417.1587123910 -2.06E+00
   373 Broy./Diag. 0.10E+00    1.5     0.70670829     -5423.6458115898 -6.49E+00
   374 Broy./Diag. 0.10E+00    1.5     0.91788675     -5430.6447774296 -7.00E+00
   375 Broy./Diag. 0.10E+00    1.5     0.48097503     -5417.4142661025  1.32E+01
   376 Broy./Diag. 0.10E+00    1.5     0.76863290     -5417.6273471482 -2.13E-01
   377 Broy./Diag. 0.10E+00    1.5     0.42281645     -5414.1222542041  3.51E+00
   378 Broy./Diag. 0.10E+00    1.5     0.48600314     -5410.6751674495  3.45E+00
   379 Broy./Diag. 0.10E+00    1.5     0.37172784     -5407.6178193126  3.06E+00
   380 Broy./Diag. 0.10E+00    1.5     1.15944120     -5409.97506528