 DBCSR| CPU Multiplication driver                                           XSMM (U)
 DBCSR| Multrec recursion limit                                              512 (U)
 DBCSR| Multiplication stack size                                           1000 (D)
 DBCSR| Maximum elements for images                                    UNLIMITED (U)
 DBCSR| Multiplicative factor virtual images                                   1 (U)
 DBCSR| Use multiplication densification                                       T (D)
 DBCSR| Multiplication size stacks                                             3 (U)
 DBCSR| Use memory pool for CPU allocation                                     F (U)
 DBCSR| Number of 3D layers                                               SINGLE (U)
 DBCSR| Use MPI memory allocation                                              F (U)
 DBCSR| Use RMA algorithm                                                      F (U)
 DBCSR| Use Communication thread                                               T (U)
 DBCSR| Communication thread load                                             87 (D)
 DBCSR| MPI: My process id                                                     0
 DBCSR| MPI: Number of processes                                             128
 DBCSR| OMP: Current number of threads                                         1
 DBCSR| OMP: Max number of threads                                             1
 DBCSR| Split modifier for TAS multiplication algorithm                  1.0E+00 (U)


  **** **** ******  **  PROGRAM STARTED AT               2023-02-15 12:41:37.890
 ***** ** ***  *** **   PROGRAM STARTED ON                             nid006725
 **    ****   ******    PROGRAM STARTED BY                                cahart
 ***** **    ** ** **   PROGRAM PROCESS ID                                104931
  **** **  *******  **  PROGRAM STARTED IN /mnt/lustre/a2fs-work2/work/e05/e05/c
                                           ahart/postdoc/masters/ni/archer2/slab
                                           /optimise/magnetisation/scf_1e-4_temp
                                           -2000_mos-1000_alpha-0.08_beta-1.5_pe
                                           riodic-xyz/search/0.77_0.6

 CP2K| version string:                 CP2K version 2023.1 (Development Version)
 CP2K| source code revision number:                                  git:964cd58
 CP2K| cp2kflags: omp libint fftw3 libxc elpa parallel scalapack xsmm plumed2 mk
 CP2K|            l
 CP2K| is freely available from                            https://www.cp2k.org/
 CP2K| Program compiled at                          Mon 13 Feb 17:05:14 GMT 2023
 CP2K| Program compiled on                                                  ln01
 CP2K| Program compiled for                                              ARCHER2
 CP2K| Data directory path    /work/e05/e05/cahart/cp2k/cp2k-2023.1/cp2k-2023.1-
 CP2K| Input file name                                                  cp2k.inp

 GLOBAL| Force Environment number                                              1
 GLOBAL| Basis set file name                                        BASIS_MOLOPT
 GLOBAL| Potential file name                                      GTH_POTENTIALS
 GLOBAL| MM Potential file name                                     MM_POTENTIAL
 GLOBAL| Coordinate file name                                      __STD_INPUT__
 GLOBAL| Method name                                                        CP2K
 GLOBAL| Project name                                                    Ni_bulk
 GLOBAL| Run type                                                         ENERGY
 GLOBAL| FFT library                                                       FFTW3
 GLOBAL| Diagonalization library                                            ELPA
 GLOBAL| DGEMM library                                                      BLAS
 GLOBAL| Minimum number of eigenvectors for ELPA usage                        16
 GLOBAL| Orthonormality check for eigenvectors                          DISABLED
 GLOBAL| Matrix multiplication library                                 ScaLAPACK
 GLOBAL| All-to-all communication in single precision                          F
 GLOBAL| FFTs using library dependent lengths                                  F
 GLOBAL| Grid backend                                                       AUTO
 GLOBAL| Global print level                                               MEDIUM
 GLOBAL| MPI I/O enabled                                                       T
 GLOBAL| Total number of message passing processes                           128
 GLOBAL| Number of threads for this process                                    1
 GLOBAL| This output is from process                                           0
 GLOBAL| Stack size for threads created by OpenMP (OMP_STACKSIZE)        default
 GLOBAL| CPU model name                          AMD EPYC 7742 64-Core Processor
 GLOBAL| CPUID                                                              1002

 MEMORY| system memory details [Kb]
 MEMORY|                        rank 0           min           max       average
 MEMORY| MemTotal            263528088     263528088     263528088     263528088
 MEMORY| MemFree             238788044     238787160     238788296     238787900
 MEMORY| Buffers                 31112         31112         31112         31112
 MEMORY| Cached                 719548        719548        719696        719579
 MEMORY| Slab                  1584496       1584496       1584520       1584501
 MEMORY| SReclaimable           105848        105848        105848        105848
 MEMORY| MemLikelyFree       239644552     239643816     239644880     239644440


 *** Fundamental physical constants (SI units) ***

 *** Literature: B. J. Mohr and B. N. Taylor,
 ***             CODATA recommended values of the fundamental physical
 ***             constants: 2006, Web Version 5.1
 ***             http://physics.nist.gov/constants

 Speed of light in vacuum [m/s]                             2.99792458000000E+08
 Magnetic constant or permeability of vacuum [N/A**2]       1.25663706143592E-06
 Electric constant or permittivity of vacuum [F/m]          8.85418781762039E-12
 Planck constant (h) [J*s]                                  6.62606896000000E-34
 Planck constant (h-bar) [J*s]                              1.05457162825177E-34
 Elementary charge [C]                                      1.60217648700000E-19
 Electron mass [kg]                                         9.10938215000000E-31
 Electron g factor [ ]                                     -2.00231930436220E+00
 Proton mass [kg]                                           1.67262163700000E-27
 Fine-structure constant                                    7.29735253760000E-03
 Rydberg constant [1/m]                                     1.09737315685270E+07
 Avogadro constant [1/mol]                                  6.02214179000000E+23
 Boltzmann constant [J/K]                                   1.38065040000000E-23
 Atomic mass unit [kg]                                      1.66053878200000E-27
 Bohr radius [m]                                            5.29177208590000E-11

 *** Conversion factors ***

 [u] -> [a.u.]                                              1.82288848426455E+03
 [Angstrom] -> [Bohr] = [a.u.]                              1.88972613288564E+00
 [a.u.] = [Bohr] -> [Angstrom]                              5.29177208590000E-01
 [a.u.] -> [s]                                              2.41888432650478E-17
 [a.u.] -> [fs]                                             2.41888432650478E-02
 [a.u.] -> [J]                                              4.35974393937059E-18
 [a.u.] -> [N]                                              8.23872205491840E-08
 [a.u.] -> [K]                                              3.15774647902944E+05
 [a.u.] -> [kJ/mol]                                         2.62549961709828E+03
 [a.u.] -> [kcal/mol]                                       6.27509468713739E+02
 [a.u.] -> [Pa]                                             2.94210107994716E+13
 [a.u.] -> [bar]                                            2.94210107994716E+08
 [a.u.] -> [atm]                                            2.90362800883016E+08
 [a.u.] -> [eV]                                             2.72113838565563E+01
 [a.u.] -> [Hz]                                             6.57968392072181E+15
 [a.u.] -> [1/cm] (wave numbers)                            2.19474631370540E+05
 [a.u./Bohr**2] -> [1/cm]                                   5.14048714338585E+03
 

 CELL_TOP| Volume [angstrom^3]:                                       983.249569
 CELL_TOP| Vector a [angstrom     7.012     0.000     0.000   |a| =     7.011596
 CELL_TOP| Vector b [angstrom     0.000     7.012     0.000   |b| =     7.011596
 CELL_TOP| Vector c [angstrom     0.000     0.000    20.000   |c| =    20.000000
 CELL_TOP| Angle (b,c), alpha [degree]:                                90.000000
 CELL_TOP| Angle (a,c), beta  [degree]:                                90.000000
 CELL_TOP| Angle (a,b), gamma [degree]:                                90.000000
 CELL_TOP| Numerically orthorhombic:                                         YES
 CELL_TOP| Periodicity                                                       XYZ

 GENERATE|  Preliminary Number of Bonds generated:                             0
 GENERATE|  Achieved consistency in connectivity generation.

 CELL| Volume [angstrom^3]:                                           983.249569
 CELL| Vector a [angstrom]:       7.012     0.000     0.000   |a| =     7.011596
 CELL| Vector b [angstrom]:       0.000     7.012     0.000   |b| =     7.011596
 CELL| Vector c [angstrom]:       0.000     0.000    20.000   |c| =    20.000000
 CELL| Angle (b,c), alpha [degree]:                                    90.000000
 CELL| Angle (a,c), beta  [degree]:                                    90.000000
 CELL| Angle (a,b), gamma [degree]:                                    90.000000
 CELL| Numerically orthorhombic:                                             YES
 CELL| Periodicity                                                           XYZ

 CELL_REF| Volume [angstrom^3]:                                       983.249569
 CELL_REF| Vector a [angstrom     7.012     0.000     0.000   |a| =     7.011596
 CELL_REF| Vector b [angstrom     0.000     7.012     0.000   |b| =     7.011596
 CELL_REF| Vector c [angstrom     0.000     0.000    20.000   |c| =    20.000000
 CELL_REF| Angle (b,c), alpha [degree]:                                90.000000
 CELL_REF| Angle (a,c), beta  [degree]:                                90.000000
 CELL_REF| Angle (a,b), gamma [degree]:                                90.000000
 CELL_REF| Numerically orthorhombic:                                         YES
 CELL_REF| Periodicity                                                       XYZ

 *** WARNING in cryssym.F:165 :: Symmetry library SPGLIB not available ***


 *******************************************************************************
                                    Kpoints
 *******************************************************************************
 BRILLOUIN| K-point scheme                                        Monkhorst-Pack
 BRILLOUIN| K-Point grid                                             4    4    1
 BRILLOUIN| Accuracy in Symmetry determination                      0.100000E-05
 BRILLOUIN| K-Point point group symmetrization                               OFF
 BRILLOUIN| Wavefunction type                                            COMPLEX
 BRILLOUIN| List of Kpoints [2 Pi/Bohr]                                        8
 BRILLOUIN| Number           Weight            X              Y              Z
 BRILLOUIN|     1           0.12500       -0.37500       -0.37500        0.00000
 BRILLOUIN|     2           0.12500       -0.37500       -0.12500        0.00000
 BRILLOUIN|     3           0.12500       -0.37500        0.12500        0.00000
 BRILLOUIN|     4           0.12500       -0.37500        0.37500        0.00000
 BRILLOUIN|     5           0.12500       -0.12500       -0.37500        0.00000
 BRILLOUIN|     6           0.12500       -0.12500       -0.12500        0.00000
 BRILLOUIN|     7           0.12500       -0.12500        0.12500        0.00000
 BRILLOUIN|     8           0.12500       -0.12500        0.37500        0.00000
 *******************************************************************************

 *******************************************************************************
 *******************************************************************************
 **                                                                           **
 **     #####                         ##              ##                      **
 **    ##   ##            ##          ##              ##                      **
 **   ##     ##                       ##            ######                    **
 **   ##     ##  ##   ##  ##   #####  ##  ##   ####   ##    #####    #####    **
 **   ##     ##  ##   ##  ##  ##      ## ##   ##      ##   ##   ##  ##   ##   **
 **   ##  ## ##  ##   ##  ##  ##      ####     ###    ##   ######   ######    **
 **    ##  ###   ##   ##  ##  ##      ## ##      ##   ##   ##       ##        **
 **     #######   #####   ##   #####  ##  ##  ####    ##    #####   ##        **
 **           ##                                                    ##        **
 **                                                                           **
 **                                                ... make the atoms dance   **
 **                                                                           **
 **            Copyright (C) by CP2K developers group (2000-2023)             **
 **                      J. Chem. Phys. 152, 194103 (2020)                    **
 **                                                                           **
 *******************************************************************************

 *** WARNING in qs_environment.F:1456 :: Number of electrons will be ***
 *** overwritten by NELEC_ALPHA and NELEC_BETA, multiplicity will be ***
 *** ignored.                                                        ***

 Number of electrons should be                                               576
 Sum of NELEC_ALPHA and NELEC_BETA is                                    576.000

 *** WARNING in qs_environment.F:1488 :: NELEC_ALPHA is not an integer, ***
 *** many features will not be supported.                               ***


 *** WARNING in qs_environment.F:1500 :: NELEC_BETA is not an integer, ***
 *** many features will not be supported.                              ***


 *** WARNING in qs_environment.F:1532 :: More ADDED_MOs requested for beta ***
 *** spin than available.                                                  ***


 *** WARNING in qs_environment.F:1548 :: More added MOs requested than     ***
 *** available. The full set of unoccupied MOs will be used. Use           ***
 *** 'ADDED_MOS -1' to always use all available MOs and to get rid of this ***
 *** warning.                                                              ***


 DFT| Spin unrestricted (spin-polarized) Kohn-Sham calculation               UKS
 DFT| Multiplicity                                                             1
 DFT| Number of spin states                                                    2
 DFT| Charge                                                                   0
 DFT| Self-interaction correction (SIC)                                       NO
 DFT| Cutoffs: density                                              1.000000E-10
 DFT|          gradient                                             1.000000E-10
 DFT|          tau                                                  1.000000E-10
 DFT|          cutoff_smoothing_range                               0.000000E+00
 DFT| XC density smoothing                                                  NONE
 DFT| XC derivatives                                                          PW

 FUNCTIONAL| PBE:
 FUNCTIONAL| J.P.Perdew, K.Burke, M.Ernzerhof, Phys. Rev. Letter, vol. 77, n 18,
 FUNCTIONAL|  pp. 3865-3868, (1996){spin polarized}                             

 vdW POTENTIAL|                                                   Pair Potential
 vdW POTENTIAL|          DFT-D3 (Version 3.1)
 vdW POTENTIAL|          Potential Form: S. Grimme et al, JCP 132: 154104 (2010)
 vdW POTENTIAL|          Zero Damping
 vdW POTENTIAL|          Cutoff Radius [Bohr]:                             20.00
 vdW POTENTIAL|          s6 Scaling Factor:                               1.0000
 vdW POTENTIAL|          sr6 Scaling Factor:                              1.2170
 vdW POTENTIAL|          s8 Scaling Factor:                               0.7220
 vdW POTENTIAL|          Cutoff for CN calculation:                   0.1000E-05

 QS| Method:                                                                 GPW
 QS| Density plane wave grid type                        NON-SPHERICAL FULLSPACE
 QS| Number of grid levels:                                                    5
 QS| Density cutoff [a.u.]:                                                300.0
 QS| Multi grid cutoff [a.u.]: 1) grid level                               300.0
 QS|                           2) grid level                               100.0
 QS|                           3) grid level                                33.3
 QS|                           4) grid level                                11.1
 QS|                           5) grid level                                 3.7
 QS| Grid level progression factor:                                          3.0
 QS| Relative density cutoff [a.u.]:                                        30.0
 QS| Interaction thresholds: eps_pgf_orb:                                1.0E-06
 QS|                         eps_filter_matrix:                          0.0E+00
 QS|                         eps_core_charge:                            1.0E-14
 QS|                         eps_rho_gspace:                             1.0E-12
 QS|                         eps_rho_rspace:                             1.0E-12
 QS|                         eps_gvg_rspace:                             1.0E-06
 QS|                         eps_ppl:                                    1.0E-02
 QS|                         eps_ppnl:                                   1.0E-08


 ATOMIC KIND INFORMATION

  1. Atomic kind: Ni_i                                  Number of atoms:      16

     Orbital Basis Set                                        DZVP-MOLOPT-SR-GTH

       Number of orbital shell sets:                                           1
       Number of orbital shells:                                               8
       Number of primitive Cartesian functions:                                6
       Number of Cartesian basis functions:                                   31
       Number of spherical basis functions:                                   26
       Norm type:                                                              2

       Normalised Cartesian orbitals:

                        Set   Shell   Orbital            Exponent    Coefficient

                          1       1    2s               10.077428      -0.684558
                                                         5.847736      -0.844524
                                                         2.494033       1.088856
                                                         0.988355       0.395503
                                                         0.344978       0.010224
                                                         0.099466      -0.003250

                          1       2    3s               10.077428       0.096747
                                                         5.847736       0.162504
                                                         2.494033      -0.297192
                                                         0.988355      -0.319752
                                                         0.344978       0.088318
                                                         0.099466       0.118587

                          1       3    4s               10.077428       0.036437
                                                         5.847736      -0.381480
                                                         2.494033       0.003759
                                                         0.988355      -1.048256
                                                         0.344978       0.855825
                                                         0.099466      -0.176350

                          1       4    3px              10.077428      -3.133913
                                                         5.847736       3.027656
                                                         2.494033       2.353227
                                                         0.988355       0.554184
                                                         0.344978       0.019462
                                                         0.099466      -0.000291
                          1       4    3py              10.077428      -3.133913
                                                         5.847736       3.027656
                                                         2.494033       2.353227
                                                         0.988355       0.554184
                                                         0.344978       0.019462
                                                         0.099466      -0.000291
                          1       4    3pz              10.077428      -3.133913
                                                         5.847736       3.027656
                                                         2.494033       2.353227
                                                         0.988355       0.554184
                                                         0.344978       0.019462
                                                         0.099466      -0.000291

                          1       5    4px              10.077428      -0.112729
                                                         5.847736      -0.114008
                                                         2.494033      -0.347303
                                                         0.988355      -0.110323
                                                         0.344978       0.154096
                                                         0.099466       0.058386
                          1       5    4py              10.077428      -0.112729
                                                         5.847736      -0.114008
                                                         2.494033      -0.347303
                                                         0.988355      -0.110323
                                                         0.344978       0.154096
                                                         0.099466       0.058386
                          1       5    4pz              10.077428      -0.112729
                                                         5.847736      -0.114008
                                                         2.494033      -0.347303
                                                         0.988355      -0.110323
                                                         0.344978       0.154096
                                                         0.099466       0.058386

                          1       6    4dx2             10.077428       8.232726
                                                         5.847736       9.105758
                                                         2.494033       2.849835
                                                         0.988355       0.554319
                                                         0.344978       0.067245
                                                         0.099466       0.001940
                          1       6    4dxy             10.077428      14.259500
                                                         5.847736      15.771636
                                                         2.494033       4.936060
                                                         0.988355       0.960109
                                                         0.344978       0.116472
                                                         0.099466       0.003360
                          1       6    4dxz             10.077428      14.259500
                                                         5.847736      15.771636
                                                         2.494033       4.936060
                                                         0.988355       0.960109
                                                         0.344978       0.116472
                                                         0.099466       0.003360
                          1       6    4dy2             10.077428       8.232726
                                                         5.847736       9.105758
                                                         2.494033       2.849835
                                                         0.988355       0.554319
                                                         0.344978       0.067245
                                                         0.099466       0.001940
                          1       6    4dyz             10.077428      14.259500
                                                         5.847736      15.771636
                                                         2.494033       4.936060
                                                         0.988355       0.960109
                                                         0.344978       0.116472
                                                         0.099466       0.003360
                          1       6    4dz2             10.077428       8.232726
                                                         5.847736       9.105758
                                                         2.494033       2.849835
                                                         0.988355       0.554319
                                                         0.344978       0.067245
                                                         0.099466       0.001940

                          1       7    5dx2             10.077428      -2.715373
                                                         5.847736      -4.020640
                                                         2.494033      -1.397569
                                                         0.988355      -0.076143
                                                         0.344978       0.033435
                                                         0.099466       0.026032
                          1       7    5dxy             10.077428      -4.703164
                                                         5.847736      -6.963952
                                                         2.494033      -2.420661
                                                         0.988355      -0.131883
                                                         0.344978       0.057911
                                                         0.099466       0.045088
                          1       7    5dxz             10.077428      -4.703164
                                                         5.847736      -6.963952
                                                         2.494033      -2.420661
                                                         0.988355      -0.131883
                                                         0.344978       0.057911
                                                         0.099466       0.045088
                          1       7    5dy2             10.077428      -2.715373
                                                         5.847736      -4.020640
                                                         2.494033      -1.397569
                                                         0.988355      -0.076143
                                                         0.344978       0.033435
                                                         0.099466       0.026032
                          1       7    5dyz             10.077428      -4.703164
                                                         5.847736      -6.963952
                                                         2.494033      -2.420661
                                                         0.988355      -0.131883
                                                         0.344978       0.057911
                                                         0.099466       0.045088
                          1       7    5dz2             10.077428      -2.715373
                                                         5.847736      -4.020640
                                                         2.494033      -1.397569
                                                         0.988355      -0.076143
                                                         0.344978       0.033435
                                                         0.099466       0.026032

                          1       8    5fx3             10.077428      -0.467694
                                                         5.847736       0.618100
                                                         2.494033       0.066069
                                                         0.988355       0.262898
                                                         0.344978       0.004720
                                                         0.099466       0.007748
                          1       8    5fx2y            10.077428      -1.045795
                                                         5.847736       1.382114
                                                         2.494033       0.147734
                                                         0.988355       0.587859
                                                         0.344978       0.010555
                                                         0.099466       0.017325
                          1       8    5fx2z            10.077428      -1.045795
                                                         5.847736       1.382114
                                                         2.494033       0.147734
                                                         0.988355       0.587859
                                                         0.344978       0.010555
                                                         0.099466       0.017325
                          1       8    5fxy2            10.077428      -1.045795
                                                         5.847736       1.382114
                                                         2.494033       0.147734
                                                         0.988355       0.587859
                                                         0.344978       0.010555
                                                         0.099466       0.017325
                          1       8    5fxyz            10.077428      -1.811371
                                                         5.847736       2.393892
                                                         2.494033       0.255883
                                                         0.988355       1.018201
                                                         0.344978       0.018282
                                                         0.099466       0.030008
                          1       8    5fxz2            10.077428      -1.045795
                                                         5.847736       1.382114
                                                         2.494033       0.147734
                                                         0.988355       0.587859
                                                         0.344978       0.010555
                                                         0.099466       0.017325
                          1       8    5fy3             10.077428      -0.467694
                                                         5.847736       0.618100
                                                         2.494033       0.066069
                                                         0.988355       0.262898
                                                         0.344978       0.004720
                                                         0.099466       0.007748
                          1       8    5fy2z            10.077428      -1.045795
                                                         5.847736       1.382114
                                                         2.494033       0.147734
                                                         0.988355       0.587859
                                                         0.344978       0.010555
                                                         0.099466       0.017325
                          1       8    5fyz2            10.077428      -1.045795
                                                         5.847736       1.382114
                                                         2.494033       0.147734
                                                         0.988355       0.587859
                                                         0.344978       0.010555
                                                         0.099466       0.017325
                          1       8    5fz3             10.077428      -0.467694
                                                         5.847736       0.618100
                                                         2.494033       0.066069
                                                         0.988355       0.262898
                                                         0.344978       0.004720
                                                         0.099466       0.007748

       Atomic covalent radius [Angstrom]:                                  1.150

       Atomic van der Waals radius [Angstrom]:                             1.630

     GTH Potential information for                                   GTH-PBE-q18

       Description:                       Goedecker-Teter-Hutter pseudopotential
                                           Goedecker et al., PRB 54, 1703 (1996)
                                          Hartwigsen et al., PRB 58, 3641 (1998)
                                                      Krack, TCA 114, 145 (2005)

       Gaussian exponent of the core charge distribution:               4.081633
       Electronic configuration (s p d ...):                           4   6   8

       Parameters of the local part of the GTH pseudopotential:

                          rloc        C1          C2          C3          C4
                        0.350000    2.102166    0.648484

       Parameters of the non-local part of the GTH pseudopotential:

                   l      r(l)      h(i,j,l)

                   0    0.261295    0.622658    9.970227
                                    9.970227  -12.871507
                   1    0.224253  -11.142708   12.429566
                                   12.429566  -14.706861
                   2    0.215348  -12.628146

  2. Atomic kind: Ni_b                                  Number of atoms:      16

     Orbital Basis Set                                        DZVP-MOLOPT-SR-GTH

       Number of orbital shell sets:                                           1
       Number of orbital shells:                                               8
       Number of primitive Cartesian functions:                                6
       Number of Cartesian basis functions:                                   31
       Number of spherical basis functions:                                   26
       Norm type:                                                              2

       Normalised Cartesian orbitals:

                        Set   Shell   Orbital            Exponent    Coefficient

                          1       1    2s               10.077428      -0.684558
                                                         5.847736      -0.844524
                                                         2.494033       1.088856
                                                         0.988355       0.395503
                                                         0.344978       0.010224
                                                         0.099466      -0.003250

                          1       2    3s               10.077428       0.096747
                                                         5.847736       0.162504
                                                         2.494033      -0.297192
                                                         0.988355      -0.319752
                                                         0.344978       0.088318
                                                         0.099466       0.118587

                          1       3    4s               10.077428       0.036437
                                                         5.847736      -0.381480
                                                         2.494033       0.003759
                                                         0.988355      -1.048256
                                                         0.344978       0.855825
                                                         0.099466      -0.176350

                          1       4    3px              10.077428      -3.133913
                                                         5.847736       3.027656
                                                         2.494033       2.353227
                                                         0.988355       0.554184
                                                         0.344978       0.019462
                                                         0.099466      -0.000291
                          1       4    3py              10.077428      -3.133913
                                                         5.847736       3.027656
                                                         2.494033       2.353227
                                                         0.988355       0.554184
                                                         0.344978       0.019462
                                                         0.099466      -0.000291
                          1       4    3pz              10.077428      -3.133913
                                                         5.847736       3.027656
                                                         2.494033       2.353227
                                                         0.988355       0.554184
                                                         0.344978       0.019462
                                                         0.099466      -0.000291

                          1       5    4px              10.077428      -0.112729
                                                         5.847736      -0.114008
                                                         2.494033      -0.347303
                                                         0.988355      -0.110323
                                                         0.344978       0.154096
                                                         0.099466       0.058386
                          1       5    4py              10.077428      -0.112729
                                                         5.847736      -0.114008
                                                         2.494033      -0.347303
                                                         0.988355      -0.110323
                                                         0.344978       0.154096
                                                         0.099466       0.058386
                          1       5    4pz              10.077428      -0.112729
                                                         5.847736      -0.114008
                                                         2.494033      -0.347303
                                                         0.988355      -0.110323
                                                         0.344978       0.154096
                                                         0.099466       0.058386

                          1       6    4dx2             10.077428       8.232726
                                                         5.847736       9.105758
                                                         2.494033       2.849835
                                                         0.988355       0.554319
                                                         0.344978       0.067245
                                                         0.099466       0.001940
                          1       6    4dxy             10.077428      14.259500
                                                         5.847736      15.771636
                                                         2.494033       4.936060
                                                         0.988355       0.960109
                                                         0.344978       0.116472
                                                         0.099466       0.003360
                          1       6    4dxz             10.077428      14.259500
                                                         5.847736      15.771636
                                                         2.494033       4.936060
                                                         0.988355       0.960109
                                                         0.344978       0.116472
                                                         0.099466       0.003360
                          1       6    4dy2             10.077428       8.232726
                                                         5.847736       9.105758
                                                         2.494033       2.849835
                                                         0.988355       0.554319
                                                         0.344978       0.067245
                                                         0.099466       0.001940
                          1       6    4dyz             10.077428      14.259500
                                                         5.847736      15.771636
                                                         2.494033       4.936060
                                                         0.988355       0.960109
                                                         0.344978       0.116472
                                                         0.099466       0.003360
                          1       6    4dz2             10.077428       8.232726
                                                         5.847736       9.105758
                                                         2.494033       2.849835
                                                         0.988355       0.554319
                                                         0.344978       0.067245
                                                         0.099466       0.001940

                          1       7    5dx2             10.077428      -2.715373
                                                         5.847736      -4.020640
                                                         2.494033      -1.397569
                                                         0.988355      -0.076143
                                                         0.344978       0.033435
                                                         0.099466       0.026032
                          1       7    5dxy             10.077428      -4.703164
                                                         5.847736      -6.963952
                                                         2.494033      -2.420661
                                                         0.988355      -0.131883
                                                         0.344978       0.057911
                                                         0.099466       0.045088
                          1       7    5dxz             10.077428      -4.703164
                                                         5.847736      -6.963952
                                                         2.494033      -2.420661
                                                         0.988355      -0.131883
                                                         0.344978       0.057911
                                                         0.099466       0.045088
                          1       7    5dy2             10.077428      -2.715373
                                                         5.847736      -4.020640
                                                         2.494033      -1.397569
                                                         0.988355      -0.076143
                                                         0.344978       0.033435
                                                         0.099466       0.026032
                          1       7    5dyz             10.077428      -4.703164
                                                         5.847736      -6.963952
                                                         2.494033      -2.420661
                                                         0.988355      -0.131883
                                                         0.344978       0.057911
                                                         0.099466       0.045088
                          1       7    5dz2             10.077428      -2.715373
                                                         5.847736      -4.020640
                                                         2.494033      -1.397569
                                                         0.988355      -0.076143
                                                         0.344978       0.033435
                                                         0.099466       0.026032

                          1       8    5fx3             10.077428      -0.467694
                                                         5.847736       0.618100
                                                         2.494033       0.066069
                                                         0.988355       0.262898
                                                         0.344978       0.004720
                                                         0.099466       0.007748
                          1       8    5fx2y            10.077428      -1.045795
                                                         5.847736       1.382114
                                                         2.494033       0.147734
                                                         0.988355       0.587859
                                                         0.344978       0.010555
                                                         0.099466       0.017325
                          1       8    5fx2z            10.077428      -1.045795
                                                         5.847736       1.382114
                                                         2.494033       0.147734
                                                         0.988355       0.587859
                                                         0.344978       0.010555
                                                         0.099466       0.017325
                          1       8    5fxy2            10.077428      -1.045795
                                                         5.847736       1.382114
                                                         2.494033       0.147734
                                                         0.988355       0.587859
                                                         0.344978       0.010555
                                                         0.099466       0.017325
                          1       8    5fxyz            10.077428      -1.811371
                                                         5.847736       2.393892
                                                         2.494033       0.255883
                                                         0.988355       1.018201
                                                         0.344978       0.018282
                                                         0.099466       0.030008
                          1       8    5fxz2            10.077428      -1.045795
                                                         5.847736       1.382114
                                                         2.494033       0.147734
                                                         0.988355       0.587859
                                                         0.344978       0.010555
                                                         0.099466       0.017325
                          1       8    5fy3             10.077428      -0.467694
                                                         5.847736       0.618100
                                                         2.494033       0.066069
                                                         0.988355       0.262898
                                                         0.344978       0.004720
                                                         0.099466       0.007748
                          1       8    5fy2z            10.077428      -1.045795
                                                         5.847736       1.382114
                                                         2.494033       0.147734
                                                         0.988355       0.587859
                                                         0.344978       0.010555
                                                         0.099466       0.017325
                          1       8    5fyz2            10.077428      -1.045795
                                                         5.847736       1.382114
                                                         2.494033       0.147734
                                                         0.988355       0.587859
                                                         0.344978       0.010555
                                                         0.099466       0.017325
                          1       8    5fz3             10.077428      -0.467694
                                                         5.847736       0.618100
                                                         2.494033       0.066069
                                                         0.988355       0.262898
                                                         0.344978       0.004720
                                                         0.099466       0.007748

       Atomic covalent radius [Angstrom]:                                  1.150

       Atomic van der Waals radius [Angstrom]:                             1.630

     GTH Potential information for                                   GTH-PBE-q18

       Description:                       Goedecker-Teter-Hutter pseudopotential
                                           Goedecker et al., PRB 54, 1703 (1996)
                                          Hartwigsen et al., PRB 58, 3641 (1998)
                                                      Krack, TCA 114, 145 (2005)

       Gaussian exponent of the core charge distribution:               4.081633
       Electronic configuration (s p d ...):                           4   6   8

       Parameters of the local part of the GTH pseudopotential:

                          rloc        C1          C2          C3          C4
                        0.350000    2.102166    0.648484

       Parameters of the non-local part of the GTH pseudopotential:

                   l      r(l)      h(i,j,l)

                   0    0.261295    0.622658    9.970227
                                    9.970227  -12.871507
                   1    0.224253  -11.142708   12.429566
                                   12.429566  -14.706861
                   2    0.215348  -12.628146


 MOLECULE KIND INFORMATION


 All atoms are their own molecule, skipping detailed information


 TOTAL NUMBERS AND MAXIMUM NUMBERS

  Total number of            - Atomic kinds:                                   2
                             - Atoms:                                         32
                             - Shell sets:                                    32
                             - Shells:                                       256
                             - Primitive Cartesian functions:                192
                             - Cartesian basis functions:                    992
                             - Spherical basis functions:                    832

  Maximum angular momentum of- Orbital basis functions:                        3
                             - Local part of the GTH pseudopotential:          2
                             - Non-local part of the GTH pseudopotential:      3


 MODULE QUICKSTEP: ATOMIC COORDINATES IN ANGSTROM

   Atom Kind Element         X             Y             Z       Z(eff)     Mass
      1    1 Ni   28      0.876298      0.876298      7.370500  18.0000  58.6934
      2    1 Ni   28      0.876298      4.382298      7.370500  18.0000  58.6934
      3    1 Ni   28      2.629298      2.629298      7.370500  18.0000  58.6934
      4    1 Ni   28      2.629298      6.135298      7.370500  18.0000  58.6934
      5    1 Ni   28      4.382298      0.876298      7.370500  18.0000  58.6934
      6    1 Ni   28      4.382298      4.382298      7.370500  18.0000  58.6934
      7    1 Ni   28      6.135298      2.629298      7.370500  18.0000  58.6934
      8    1 Ni   28      6.135298      6.135298      7.370500  18.0000  58.6934
      9    2 Ni   28      0.876298      2.629298      9.123500  18.0000  58.6934
     10    2 Ni   28      0.876298      6.135298      9.123500  18.0000  58.6934
     11    2 Ni   28      2.629298      0.876298      9.123500  18.0000  58.6934
     12    2 Ni   28      2.629298      4.382298      9.123500  18.0000  58.6934
     13    2 Ni   28      4.382298      2.629298      9.123500  18.0000  58.6934
     14    2 Ni   28      4.382298      6.135298      9.123500  18.0000  58.6934
     15    2 Ni   28      6.135298      0.876298      9.123500  18.0000  58.6934
     16    2 Ni   28      6.135298      4.382298      9.123500  18.0000  58.6934
     17    2 Ni   28      0.876298      0.876298     10.876500  18.0000  58.6934
     18    2 Ni   28      0.876298      4.382298     10.876500  18.0000  58.6934
     19    2 Ni   28      2.629298      2.629298     10.876500  18.0000  58.6934
     20    2 Ni   28      2.629298      6.135298     10.876500  18.0000  58.6934
     21    2 Ni   28      4.382298      0.876298     10.876500  18.0000  58.6934
     22    2 Ni   28      4.382298      4.382298     10.876500  18.0000  58.6934
     23    2 Ni   28      6.135298      2.629298     10.876500  18.0000  58.6934
     24    2 Ni   28      6.135298      6.135298     10.876500  18.0000  58.6934
     25    1 Ni   28      0.876298      2.629298     12.629500  18.0000  58.6934
     26    1 Ni   28      0.876298      6.135298     12.629500  18.0000  58.6934
     27    1 Ni   28      2.629298      0.876298     12.629500  18.0000  58.6934
     28    1 Ni   28      2.629298      4.382298     12.629500  18.0000  58.6934
     29    1 Ni   28      4.382298      2.629298     12.629500  18.0000  58.6934
     30    1 Ni   28      4.382298      6.135298     12.629500  18.0000  58.6934
     31    1 Ni   28      6.135298      0.876298     12.629500  18.0000  58.6934
     32    1 Ni   28      6.135298      4.382298     12.629500  18.0000  58.6934



 SCF PARAMETERS         Density guess:                                    ATOMIC
                        --------------------------------------------------------
                        max_scf:                                             500
                        max_scf_history:                                       0
                        max_diis:                                              4
                        --------------------------------------------------------
                        eps_scf:                                        1.00E-04
                        eps_scf_history:                                0.00E+00
                        eps_diis:                                       1.00E-01
                        eps_eigval:                                     1.00E-05
                        --------------------------------------------------------
                        level_shift [a.u.]:                             0.000000
                        added MOs                                       533  554
                        --------------------------------------------------------
                        Mixing method:                            BROYDEN_MIXING
                                                charge density mixing in g-space
                        --------------------------------------------------------
                        Smear method:                                FERMI_DIRAC
                        Electronic temperature [K]:                       2000.0
                        Electronic temperature [a.u.]:                  6.33E-03
                        Accuracy threshold:                             1.00E-10
                        --------------------------------------------------------
                        No outer SCF

 PW_GRID| Information for grid number                                          1
 PW_GRID| Grid distributed over                                   128 processors
 PW_GRID| Real space group dimensions                                     8   16
 PW_GRID| the grid is blocked:                                               YES
 PW_GRID| Cutoff [a.u.]                                                    300.0
 PW_GRID| spherical cutoff:                                                   NO
 PW_GRID|   Bounds   1            -54      53                Points:         108
 PW_GRID|   Bounds   2            -54      53                Points:         108
 PW_GRID|   Bounds   3           -150     149                Points:         300
 PW_GRID| Volume element (a.u.^3)  0.1896E-02     Volume (a.u.^3)      6635.2971
 PW_GRID| Grid span                                                    FULLSPACE
 PW_GRID|   Distribution                         Average         Max         Min
 PW_GRID|   G-Vectors                            27337.5       28728       25272
 PW_GRID|   G-Rays                                 253.1         266         234
 PW_GRID|   Real Space Points                    27337.5       28728       25272

 PW_GRID| Information for grid number                                          2
 PW_GRID| Number of the reference grid                                         1
 PW_GRID| Grid distributed over                                   128 processors
 PW_GRID| Real space group dimensions                                     8   16
 PW_GRID| the grid is blocked:                                                NO
 PW_GRID| Cutoff [a.u.]                                                    100.0
 PW_GRID| spherical cutoff:                                                   NO
 PW_GRID|   Bounds   1            -30      29                Points:          60
 PW_GRID|   Bounds   2            -30      29                Points:          60
 PW_GRID|   Bounds   3            -90      89                Points:         180
 PW_GRID| Volume element (a.u.^3)  0.1024E-01     Volume (a.u.^3)      6635.2971
 PW_GRID| Grid span                                                    FULLSPACE
 PW_GRID|   Distribution                         Average         Max         Min
 PW_GRID|   G-Vectors                             5062.5       15960           0
 PW_GRID|   G-Rays                                  84.4         266           0
 PW_GRID|   Real Space Points                     5062.5        5760        3780

 PW_GRID| Information for grid number                                          3
 PW_GRID| Number of the reference grid                                         1
 PW_GRID| Grid distributed over                                   128 processors
 PW_GRID| Real space group dimensions                                     8   16
 PW_GRID| the grid is blocked:                                                NO
 PW_GRID| Cutoff [a.u.]                                                     33.3
 PW_GRID| spherical cutoff:                                                   NO
 PW_GRID|   Bounds   1            -18      17                Points:          36
 PW_GRID|   Bounds   2            -18      17                Points:          36
 PW_GRID|   Bounds   3            -50      49                Points:         100
 PW_GRID| Volume element (a.u.^3)  0.5120E-01     Volume (a.u.^3)      6635.2971
 PW_GRID| Grid span                                                    FULLSPACE
 PW_GRID|   Distribution                         Average         Max         Min
 PW_GRID|   G-Vectors                             1012.5        9576           0
 PW_GRID|   G-Rays                                  28.1         266           0
 PW_GRID|   Real Space Points                     1012.5        1500         800

 PW_GRID| Information for grid number                                          4
 PW_GRID| Number of the reference grid                                         1
 PW_GRID| Grid distributed over                                   128 processors
 PW_GRID| Real space group dimensions                                     8   16
 PW_GRID| the grid is blocked:                                                NO
 PW_GRID| Cutoff [a.u.]                                                     11.1
 PW_GRID| spherical cutoff:                                                   NO
 PW_GRID|   Bounds   1            -10       9                Points:          20
 PW_GRID|   Bounds   2            -10       9                Points:          20
 PW_GRID|   Bounds   3            -30      29                Points:          60
 PW_GRID| Volume element (a.u.^3)  0.2765         Volume (a.u.^3)      6635.2971
 PW_GRID| Grid span                                                    FULLSPACE
 PW_GRID|   Distribution                         Average         Max         Min
 PW_GRID|   G-Vectors                              187.5        3800           0
 PW_GRID|   G-Rays                                   9.4         190           0
 PW_GRID|   Real Space Points                      187.5         360         120

 PW_GRID| Information for grid number                                          5
 PW_GRID| Number of the reference grid                                         1
 PW_GRID| Grid distributed over                                   128 processors
 PW_GRID| Real space group dimensions                                     8   16
 PW_GRID| the grid is blocked:                                                NO
 PW_GRID| Cutoff [a.u.]                                                      3.7
 PW_GRID| spherical cutoff:                                                   NO
 PW_GRID|   Bounds   1             -6       5                Points:          12
 PW_GRID|   Bounds   2             -6       5                Points:          12
 PW_GRID|   Bounds   3            -18      17                Points:          36
 PW_GRID| Volume element (a.u.^3)   1.280         Volume (a.u.^3)      6635.2971
 PW_GRID| Grid span                                                    FULLSPACE
 PW_GRID|   Distribution                         Average         Max         Min
 PW_GRID|   G-Vectors                               40.5        1296           0
 PW_GRID|   G-Rays                                   3.4         108           0
 PW_GRID|   Real Space Points                       40.5          72           0

 POISSON| Solver                                                        PERIODIC
 POISSON| Periodicity                                                        XYZ

 RS_GRID| Information for grid number                                          1
 RS_GRID|   Bounds   1            -54      53                Points:         108
 RS_GRID|   Bounds   2            -54      53                Points:         108
 RS_GRID|   Bounds   3           -150     149                Points:         300
 RS_GRID| Real space distribution over                                  8 groups
 RS_GRID| Real space distribution along direction                              2
 RS_GRID| Border size                                                         28
 RS_GRID| Real space distribution over                                 16 groups
 RS_GRID| Real space distribution along direction                              3
 RS_GRID| Border size                                                         28
 RS_GRID|   Distribution                         Average         Max         Min
 RS_GRID|   Planes                                  69.5          70          69
 RS_GRID|   Distribution                         Average         Max         Min
 RS_GRID|   Planes                                  74.8          75          74

 RS_GRID| Information for grid number                                          2
 RS_GRID|   Bounds   1            -30      29                Points:          60
 RS_GRID|   Bounds   2            -30      29                Points:          60
 RS_GRID|   Bounds   3            -90      89                Points:         180
 RS_GRID| Real space fully replicated
 RS_GRID| Group size                                                           1

 RS_GRID| Information for grid number                                          3
 RS_GRID|   Bounds   1            -18      17                Points:          36
 RS_GRID|   Bounds   2            -18      17                Points:          36
 RS_GRID|   Bounds   3            -50      49                Points:         100
 RS_GRID| Real space fully replicated
 RS_GRID| Group size                                                           1

 RS_GRID| Information for grid number                                          4
 RS_GRID|   Bounds   1            -10       9                Points:          20
 RS_GRID|   Bounds   2            -10       9                Points:          20
 RS_GRID|   Bounds   3            -30      29                Points:          60
 RS_GRID| Real space fully replicated
 RS_GRID| Group size                                                           1

 RS_GRID| Information for grid number                                          5
 RS_GRID|   Bounds   1             -6       5                Points:          12
 RS_GRID|   Bounds   2             -6       5                Points:          12
 RS_GRID|   Bounds   3            -18      17                Points:          36
 RS_GRID| Real space fully replicated
 RS_GRID| Group size                                                           1

 Spin 1

 Number of electrons:                                                        298.960
 Number of occupied orbitals:                                                299
 Number of molecular orbitals:                                               832

 Spin 2

 Number of electrons:                                                        277.040
 Number of occupied orbitals:                                                278
 Number of molecular orbitals:                                               832

 Number of orbital functions:                                                832
 Number of independent orbital functions:                                    832

 Extrapolation method: initial_guess

 Atomic guess: The first density matrix is obtained in terms of atomic orbitals
               and electronic configurations assigned to each atomic kind

 Guess for atomic kind: Ni_i

 Electronic structure
    Total number of core electrons                                         10.00
    Total number of valence electrons                                      18.00
    Total number of electrons                                              28.00
    Multiplicity                                                         doublet
    Alpha Electrons
    S   [  1.00  1.00] 1.00  1.00
    P   [  3.00] 3.00
    D      4.30
    Beta Electrons
    S   [  1.00  1.00] 1.00  1.00
    P   [  3.00] 3.00
    D      3.70


 *******************************************************************************
                  Iteration          Convergence                     Energy [au]
 *******************************************************************************
                          1         1.51708                    -167.066118163909
                          2         15.1863                    -156.630620063797
                          3         2.29518                    -168.318250074867
                          4        0.198051                    -168.608832938310
                          5        0.762142E-01                -168.611735578094
                          6        0.143308E-01                -168.612261389358
                          7        0.453828E-02                -168.612313512258
                          8        0.436836E-02                -168.612313369107
                          9        0.696306E-03                -168.612315351147
                         10        0.226261E-02                -168.612315025774
                         11        0.995757E-03                -168.612315268998
                         12        0.170432E-03                -168.612315393602
                         13        0.195344E-03                -168.612315392852
                         14        0.147467E-03                -168.612315396817
                         15        0.185080E-03                -168.612315392680
                         16        0.969041E-04                -168.612315398729
                         17        0.991109E-04                -168.612315398505
                         18        0.433236E-04                -168.612315399326
                         19        0.269198E-04                -168.612315399408
                         20        0.109432E-04                -168.612315399455
                         21        0.443439E-05                -168.612315399480
                         22        0.816741E-05                -168.612315399471
                         23        0.470984E-05                -168.612315399481
                         24        0.245833E-05                -168.612315399483
                         25        0.100766E-05                -168.612315399484
                         26        0.417991E-06                -168.612315399483

 Energy components [Hartree]           Total Energy ::         -168.612315399483
                                        Band Energy ::          -26.569179124340
                                     Kinetic Energy ::           97.305065650248
                                   Potential Energy ::         -265.917381049731
                                      Virial (-V/T) ::            2.732821557364
                                        Core Energy ::         -299.567011526383
                                          XC Energy ::          -16.225783039068
                                     Coulomb Energy ::          147.180479165968
                       Total Pseudopotential Energy ::         -396.958417944166
                       Local Pseudopotential Energy ::         -362.646534962999
                    Nonlocal Pseudopotential Energy ::          -34.311882981167
                                        Confinement ::            0.863407675347

 Orbital energies  State     Spin  L     Occupation   Energy[a.u.]    Energy[eV]

                       1    alpha  0          1.000      -4.170511   -113.485387
                       2    alpha  0          1.000      -0.181081     -4.927469
                       1     beta  0          1.000      -4.143060   -112.738394
                       2     beta  0          1.000      -0.176746     -4.809500

                       1    alpha  1          3.000      -2.576642    -70.114003
                       1     beta  1          3.000      -2.549934    -69.387228

                       1    alpha  2          4.300      -0.325251     -8.850518
                       1     beta  2          3.700      -0.302561     -8.233099


 Total Electron Density at R=0:                                         0.030426

 Guess for atomic kind: Ni_b

 Electronic structure
    Total number of core electrons                                         10.00
    Total number of valence electrons                                      18.00
    Total number of electrons                                              28.00
    Multiplicity                                                         doublet
    Alpha Electrons
    S   [  1.00  1.00] 1.00  1.00
    P   [  3.00] 3.00
    D      4.38
    Beta Electrons
    S   [  1.00  1.00] 1.00  1.00
    P   [  3.00] 3.00
    D      3.62


 *******************************************************************************
                  Iteration          Convergence                     Energy [au]
 *******************************************************************************
                          1         1.51743                    -167.068458813862
                          2         15.5326                    -156.652174512656
                          3         2.36158                    -168.320227060345
                          4        0.212703                    -168.610753863869
                          5        0.849699E-01                -168.613773682004
                          6        0.194886E-01                -168.614426658677
                          7        0.162947E-02                -168.614516873527
                          8        0.192367E-02                -168.614516785781
                          9        0.108156E-03                -168.614517192818
                         10        0.111469E-02                -168.614517109740
                         11        0.606702E-03                -168.614517170324
                         12        0.122414E-03                -168.614517192005
                         13        0.103285E-03                -168.614517193027
                         14        0.106151E-03                -168.614517194467
                         15        0.101755E-03                -168.614517194603
                         16        0.645393E-04                -168.614517195043
                         17        0.611800E-04                -168.614517195542
                         18        0.386307E-04                -168.614517195675
                         19        0.702604E-04                -168.614517195449
                         20        0.576951E-04                -168.614517195552
                         21        0.484871E-04                -168.614517195616
                         22        0.157508E-04                -168.614517195774
                         23        0.147872E-04                -168.614517195793
                         24        0.188284E-04                -168.614517195783
                         25        0.703927E-05                -168.614517195814
                         26        0.752880E-05                -168.614517195816
                         27        0.463564E-05                -168.614517195819
                         28        0.198510E-05                -168.614517195820
                         29        0.662950E-06                -168.614517195820

 Energy components [Hartree]           Total Energy ::         -168.614517195820
                                        Band Energy ::          -26.570229761235
                                     Kinetic Energy ::           97.308045836549
                                   Potential Energy ::         -265.922563032369
                                      Virial (-V/T) ::            2.732791114509
                                        Core Energy ::         -299.568755448805
                                          XC Energy ::          -16.228303000938
                                     Coulomb Energy ::          147.182541253923
                       Total Pseudopotential Energy ::         -396.963142366475
                       Local Pseudopotential Energy ::         -362.649697438268
                    Nonlocal Pseudopotential Energy ::          -34.313444928207
                                        Confinement ::            0.863410811209

 Orbital energies  State     Spin  L     Occupation   Energy[a.u.]    Energy[eV]

                       1    alpha  0          1.000      -4.174164   -113.584766
                       2    alpha  0          1.000      -0.181675     -4.943615
                       1     beta  0          1.000      -4.138934   -112.626122
                       2     beta  0          1.000      -0.176110     -4.792199

                       1    alpha  1          3.000      -2.580196    -70.210703
                       1     beta  1          3.000      -2.545920    -69.278003

                       1    alpha  2          4.385      -0.328282     -8.933020
                       1     beta  2          3.615      -0.299165     -8.140695


 Total Electron Density at R=0:                                         0.030419

 Spin 1
 Re-scaling the density matrix to get the right number of electrons for spin 1
                  # Electrons              Trace(P)               Scaling factor
                        298.960             298.960                        1.000

 Spin 2
 Re-scaling the density matrix to get the right number of electrons for spin 2
                  # Electrons              Trace(P)               Scaling factor
                        277.040             277.040                        1.000


 SCF WAVEFUNCTION OPTIMIZATION

  Step     Update method      Time    Convergence         Total energy    Change
  ------------------------------------------------------------------------------
     1 NoMix/Diag. 0.80E-01    1.4     0.87330095     -5426.4764916934 -5.43E+03
     2 Broy./Diag. 0.80E-01    1.5     0.01678665     -5317.1299704344  1.09E+02
     3 Broy./Diag. 0.80E-01    1.5     0.04745885     -5351.4759134288 -3.43E+01
     4 Broy./Diag. 0.80E-01    1.5     0.00752496     -5410.7699683978 -5.93E+01
     5 Broy./Diag. 0.80E-01    1.5     0.01112962     -5415.8790865907 -5.11E+00
     6 Broy./Diag. 0.80E-01    1.5     0.01209435     -5416.0895269538 -2.10E-01
     7 Broy./Diag. 0.80E-01    1.5     0.00212490     -5417.0742092647 -9.85E-01
     8 Broy./Diag. 0.80E-01    1.5     0.00783908     -5416.7490750261  3.25E-01
     9 Broy./Diag. 0.80E-01    1.5     0.00147560     -5417.2492603386 -5.00E-01
    10 Broy./Diag. 0.80E-01    1.5     0.00247340     -5417.4530164804 -2.04E-01
    11 Broy./Diag. 0.80E-01    1.5     0.00132197     -5417.7689254950 -3.16E-01
    12 Broy./Diag. 0.80E-01    1.5     0.00168547     -5417.4892945087  2.80E-01
[...]
   122 Broy./Diag. 0.80E-01    1.5     0.01472276     -5417.3652601747 -2.10E-01
   123 Broy./Diag. 0.80E-01    1.5     0.02443065     -5417.2136263129  1.52E-01
   124 Broy./Diag. 0.80E-01    1.5     0.00414792     -5417.4307424383 -2.17E-01
   125 Broy./Diag. 0.80E-01    1.5     0.00859112     -5417.3203222038  1.10E-01
   126 Broy./Diag. 0.80E-01    1.5     0.00970861     -5417.6000376659 -2.80E-01
   127 Broy./Diag. 0.80E-01    1.5     0.00270197     -5417.7631974795 -1.63E-01
   128 Broy./Diag. 0.80E-01    1.5     0.00469831     -5417.7412458160  2.20E-02
   129 Broy./Diag. 0.80E-01    1.5     0.00342103     -5417.8504597450 -1.09E-01
   130 Broy./Diag. 0.80E-01    1.5     0.00039671     -5418.0538733376 -2.03E-01
   131 Broy./Diag. 0.80E-01    1.5     0.01634780     -5417.9839252553  6.99E-02
   132 Broy./Diag. 0.80E-01    1.5     0.00381594     -5417.6050144170  3.79E-01
   133 Broy./Diag. 0.80E-01    1.5     0.02204214     -5417.5220138589  8.30E-02
   134 Broy./Diag. 0.80E-01    1.5     0.00347365     -5417.8498042235 -3.28E-01
   135 Broy./Diag. 0.80E-01    1.5     0.00933295     -5417.7444531095  1.05E-01
   136 Broy./Diag. 0.80E-01    1.5     0.00505388     -5417.8600533853 -1.16E-01
   137 Broy./Diag. 0.80E-01    1.5     0.00563371     -5417.8428671568  1.72E-02
   138 Broy./Diag. 0.80E-01    1.5     0.00478129     -5417.8208114540  2.21E-02
   139 Broy./Diag. 0.80E-01    1.5     0.00921921     -5417.8724168670 -5.16E-02
   140 Broy./Diag. 0.80E-01    1.5     0.00646337     -5417.8693295246  3.09E-03
   141 Broy./Diag. 0.80E-01    1.5     0.00158123     -5418.0288536300 -1.60E-01
   142 Broy./Diag. 0.80E-01    1.5     0.00339900     -5418.0675656890 -3.87E-02
   143 Broy./Diag. 0.80E-01    1.5     0.00773055     -5418.0509011040  1.67E-02
   144 Broy./Diag. 0.80E-01    1.5     0.00529578     -5418.0034012176  4.75E-02
   145 Broy./Diag. 0.80E-01    1.5     0.00435801     -5418.1257552131 -1.22E-01
   146 Broy./Diag. 0.80E-01    1.5     0.00493873     -5418.0916387409  3.41E-02
   147 Broy./Diag. 0.80E-01    1.5     0.00658514     -5418.0673413639  2.43E-02
   148 Broy./Diag. 0.80E-01    1.5     0.00488012     -5418.0084888015  5.89E-02
   149 Broy./Diag. 0.80E-01    1.5     0.00675563     -5418.0326507157 -2.42E-02
   150 Broy./Diag. 0.80E-01    1.5     0.00816442     -5417.9091606524  1.23E-01
   151 Broy./Diag. 0.80E-01    1.5     0.00671724     -5418.0736769387 -1.65E-01
   152 Broy./Diag. 0.80E-01    1.5     0.00208472     -5417.9195535981  1.54E-01
   153 Broy./Diag. 0.80E-01    1.5     0.00848946     -5417.8382596006  8.13E-02
   154 Broy./Diag. 0.80E-01    1.5     0.00953368     -5417.9547380801 -1.16E-01
   155 Broy./Diag. 0.80E-01    1.5     0.00369545     -5417.8163791126  1.38E-01
   156 Broy./Diag. 0.80E-01    1.5     0.00380195     -5418.0597663722 -2.43E-01
   157 Broy./Diag. 0.80E-01    1.5     0.00123758     -5418.0746565027 -1.49E-02
   158 Broy./Diag. 0.80E-01    1.5     0.00134014     -5418.1295116258 -5.49E-02
   159 Broy./Diag. 0.80E-01    1.5     0.00431862     -5418.0821613661  4.74E-02
   160 Broy./Diag. 0.80E-01    1.5     0.00723137     -5417.9671320880  1.15E-01
   161 Broy./Diag. 0.80E-01    1.5     0.00259152     -5418.0218267159 -5.47E-02
   162 Broy./Diag. 0.80E-01    1.5     0.00226069     -5417.9566186356  6.52E-02
   163 Broy./Diag. 0.80E-01    1.5     0.01070284     -5417.9404850013  1.61E-02
   164 Broy./Diag. 0.80E-01    1.5     0.00079342     -5417.7243451490  2.16E-01
   165 Broy./Diag. 0.80E-01    1.5     0.01002227     -5417.7510028916 -2.67E-02
   166 Broy./Diag. 0.80E-01    1.5     0.00364271     -5418.0959353518 -3.45E-01
   167 Broy./Diag. 0.80E-01    1.5     0.00143066     -5418.0014153585  9.45E-02
   168 Broy./Diag. 0.80E-01    1.5     0.00234784     -5418.0451376402 -4.37E-02
   169 Broy./Diag. 0.80E-01    1.5     0.00342529     -5418.2781252599 -2.33E-01
   170 Broy./Diag. 0.80E-01    1.5     0.00410339     -5418.4015494021 -1.23E-01
   171 Broy./Diag. 0.80E-01    1.5     0.00304774     -5418.3218951252  7.97E-02
   172 Broy./Diag. 0.80E-01    1.5     0.00557407     -5418.4249106066 -1.03E-01
   173 Broy./Diag. 0.80E-01    1.5     0.00473703     -5418.5050272654 -8.01E-02
   174 Broy./Diag. 0.80E-01    1.5     0.00383371     -5418.4387562731  6.63E-02
   175 Broy./Diag. 0.80E-01    1.5     0.01251788     -5418.4599914712 -2.12E-02
   176 Broy./Diag. 0.80E-01    1.5     0.00319746     -5418.0873910975  3.73E-01
   177 Broy./Diag. 0.80E-01    1.5     0.00565371     -5418.0696685346  1.77E-02
   178 Broy./Diag. 0.80E-01    1.5     0.00474857     -5418.0494970207  2.02E-02
   179 Broy./Diag. 0.80E-01    1.5     0.01355212     -5418.2058658015 -1.56E-01
   180 Broy./Diag. 0.80E-01    1.5     0.01057387     -5418.2193330109 -1.35E-02
   181 Broy./Diag. 0.80E-01    1.5     0.00283235     -5418.0427353121  1.77E-01
   182 Broy./Diag. 0.80E-01    1.5     0.00740136     -5417.8570970589  1.86E-01
   183 Broy./Diag. 0.80E-01    1.5     0.00127423     -5417.9646161603 -1.08E-01
   184 Broy./Diag. 0.80E-01    1.5     0.00442454     -5417.8602144483  1.04E-01
   185 Broy./Diag. 0.80E-01    1.5     0.00434177     -5417.5528173226  3.07E-01
   186 Broy./Diag. 0.80E-01    1.5     0.01232383     -5417.6812129980 -1.28E-01
   187 Broy./Diag. 0.80E-01    1.5     0.01943242     -5417.7549253015 -7.37E-02
   188 Broy./Diag. 0.80E-01    1.5     0.02374225     -5417.5323997318  2.23E-01
   189 Broy./Diag. 0.80E-01    1.5     0.00995521     -5417.7682536637 -2.36E-01
   190 Broy./Diag. 0.80E-01    1.5     0.00687366     -5417.7027744699  6.55E-02
   191 Broy./Diag. 0.80E-01    1.5     0.00530591     -5417.6861716917  1.66E-02
   192 Broy./Diag. 0.80E-01    1.5     0.00623455     -5417.8681314281 -1.82E-01
   193 Broy./Diag. 0.80E-01    1.5     0.00557357     -5417.8950710478 -2.69E-02
   194 Broy./Diag. 0.80E-01    1.5     0.00200920     -5417.9521530218 -5.71E-02
   195 Broy./Diag. 0.80E-01    1.5     0.01080824     -5417.9837348554 -3.16E-02
   196 Broy./Diag. 0.80E-01    1.5     0.00483038     -5417.9556569943  2.81E-02
   197 Broy./Diag. 0.80E-01    1.5     0.01043671     -5418.0608840309 -1.05E-01
   198 Broy./Diag. 0.80E-01    1.5     0.02013752     -5417.6181194222  4.43E-01
   199 Broy./Diag. 0.80E-01    1.5     0.00838068     -5418.0764798646 -4.58E-01
   200 Broy./Diag. 0.80E-01    1.5     0.00442629     -5417.9534891169  1.23E-01
   201 Broy./Diag. 0.80E-01    1.5     0.00103980     -5417.8258393613  1.28E-01
   202 Broy./Diag. 0.80E-01    1.5     0.00290076     -5417.6765669869  1.49E-01
   203 Broy./Diag. 0.80E-01    1.5     0.01164734     -5417.6268328324  4.97E-02
   204 Broy./Diag. 0.80E-01    1.5     0.00498005     -5417.5783647836  4.85E-02
   205 Broy./Diag. 0.80E-01    1.5     0.00437455     -5417.4917717629  8.66E-02
   206 Broy./Diag. 0.80E-01    1.5     0.00827209     -5417.5944976971 -1.03E-01
   207 Broy./Diag. 0.80E-01    1.5     0.01340460     -5417.6507915660 -5.63E-02
   208 Broy./Diag. 0.80E-01    1.5     0.00815015     -5417.8988301082 -2.48E-01
   209 Broy./Diag. 0.80E-01    1.5     0.00928871     -5417.8635473430  3.53E-02
   210 Broy./Diag. 0.80E-01    1.5     0.01351757     -5417.9989118080 -1.35E-01
   211 Broy./Diag. 0.80E-01    1.5     0.01239609     -5418.1286063215 -1.30E-01
   212 Broy./Diag. 0.80E-01    1.5     0.00721665     -5418.2195953263 -9.10E-02
   213 Broy./Diag. 0.80E-01    1.5     0.00461122     -5418.2311705460 -1.16E-02
   214 Broy./Diag. 0.80E-01    1.5     0.00419420     -5418.2850823731 -5.39E-02
   215 Broy./Diag. 0.80E-01    1.5     0.01917479     -5418.3466091042 -6.15E-02
   216 Broy./Diag. 0.80E-01    1.5     0.01404679     -5418.5748298622 -2.28E-01
   217 Broy./Diag. 0.80E-01    1.5     0.00672705     -5418.2855050138  2.89E-01
   218 Broy./Diag. 0.80E-01    1.5     0.00628562     -5418.2858214054 -3.16E-04
   219 Broy./Diag. 0.80E-01    1.5     0.01727235     -5418.0948170104  1.91E-01
   220 Broy./Diag. 0.80E-01    1.5     0.00512547     -5418.1173912676 -2.26E-02
   221 Broy./Diag. 0.80E-01    1.5     0.00864628     -5418.2836533996 -1.66E-01
   222 Broy./Diag. 0.80E-01    1.5     0.00466862     -5418.1544475102  1.29E-01
   223 Broy./Diag. 0.80E-01    1.5     0.01771870     -5418.2805323038 -1.26E-01
   224 Broy./Diag. 0.80E-01    1.5     0.00795459     -5418.5128760327 -2.32E-01
   225 Broy./Diag. 0.80E-01    1.5     0.01253216     -5418.1943995491  3.18E-01
   226 Broy./Diag. 0.80E-01    1.5     0.00863412     -5418.2154291864 -2.10E-02
   227 Broy./Diag. 0.80E-01    1.5     0.02266977     -5418.3743194509 -1.59E-01
   228 Broy./Diag. 0.80E-01    1.5     0.03729938     -5418.3254752463  4.88E-02
   229 Broy./Diag. 0.80E-01    1.5     0.01016133     -5418.4077111217 -8.22E-02
   230 Broy./Diag. 0.80E-01    1.5     0.00402829     -5418.2946569762  1.13E-01
   231 Broy./Diag. 0.80E-01    1.5     0.00383575     -5418.0325417815  2.62E-01
   232 Broy./Diag. 0.80E-01    1.5     0.04049333     -5418.4880502234 -4.56E-01
   233 Broy./Diag. 0.80E-01    1.5     0.01694528     -5416.2775230450  2.21E+00
   234 Broy./Diag. 0.80E-01    1.5     0.00894387     -5416.7821285455 -5.05E-01
   235 Broy./Diag. 0.80E-01    1.5     0.01946714     -5417.0049250607 -2.23E-01
   236 Broy./Diag. 0.80E-01    1.5     0.01415675     -5418.6387496141 -1.63E+00
   237 Broy./Diag. 0.80E-01    1.5     0.01197797     -5418.3265267678  3.12E-01
   238 Broy./Diag. 0.80E-01    1.5     0.01251587     -5417.5322562921  7.94E-01
   239 Broy./Diag. 0.80E-01    1.5     0.01638830     -5418.2124672532 -6.80E-01
   240 Broy./Diag. 0.80E-01    1.5     0.00667634     -5417.4098085258  8.03E-01
   241 Broy./Diag. 0.80E-01    1.5     0.02608034     -5417.5090628601 -9.93E-02
   242 Broy./Diag. 0.80E-01    1.5     0.01172867     -5415.5597113492  1.95E+00
   243 Broy./Diag. 0.80E-01    1.5     0.00446279     -5415.9934706578 -4.34E-01
   244 Broy./Diag. 0.80E-01    1.5     0.02052546     -5416.0619547298 -6.85E-02
   245 Broy./Diag. 0.80E-01    1.5     0.00889148     -5416.0698430761 -7.89E-03
   246 Broy./Diag. 0.80E-01    1.5     0.01361666     -5415.7287941305  3.41E-01
   247 Broy./Diag. 0.80E-01    1.5     0.00346643     -5414.2386418982  1.49E+00
   248 Broy./Diag. 0.80E-01    1.5     0.02134112     -5412.9801293493  1.26E+00
   249 Broy./Diag. 0.80E-01    1.5     0.03901524     -5412.7358917751  2.44E-01
   250 Broy./Diag. 0.80E-01    1.5     0.01853532     -5417.1104909975 -4.37E+00
   251 Broy./Diag. 0.80E-01    1.5     0.01544888     -5416.9237114954  1.87E-01
   252 Broy./Diag. 0.80E-01    1.5     0.01780335     -5416.4153371938  5.08E-01
   253 Broy./Diag. 0.80E-01    1.5     0.04650748     -5416.7601955379 -3.45E-01
   254 Broy./Diag. 0.80E-01    1.5     0.02599258     -5414.2390200767  2.52E+00
   255 Broy./Diag. 0.80E-01    1.5     0.02758593     -5413.7915332150  4.47E-01
   256 Broy./Diag. 0.80E-01    1.5     0.04588964     -5418.0215001037 -4.23E+00
   257 Broy./Diag. 0.80E-01    1.5     0.03388828     -5417.0932874134  9.28E-01
   258 Broy./Diag. 0.80E-01    1.5     0.04922200     -5412.2742436260  4.82E+00
   259 Broy./Diag. 0.80E-01    1.5     0.01903312     -5414.6818933230 -2.41E+00
   260 Broy./Diag. 0.80E-01    1.5     0.02338855     -5413.4679307674  1.21E+00
   261 Broy./Diag. 0.80E-01    1.5     0.02693909     -5413.5676992746 -9.98E-02
   262 Broy./Diag. 0.80E-01    1.5     0.01984680     -5417.7842411304 -4.22E+00
   263 Broy./Diag. 0.80E-01    1.5     0.05549775     -5417.8627827760 -7.85E-02
   264 Broy./Diag. 0.80E-01    1.5     0.01160750     -5418.0904447726 -2.28E-01
   265 Broy./Diag. 0.80E-01    1.5     0.01079830     -5416.9061942181  1.18E+00
   266 Broy./Diag. 0.80E-01    1.5     0.02681133     -5417.6445812970 -7.38E-01
   267 Broy./Diag. 0.80E-01    1.5     0.04374422     -5415.5449943962  2.10E+00
   268 Broy./Diag. 0.80E-01    1.5     0.02370881     -5418.3947359535 -2.85E+00
   269 Broy./Diag. 0.80E-01    1.5     0.03279652     -5417.3288439849  1.07E+00
   270 Broy./Diag. 0.80E-01    1.5     0.03401548     -5419.2798939760 -1.95E+00
   271 Broy./Diag. 0.80E-01    1.5     0.05454195     -5416.3391004608  2.94E+00
   272 Broy./Diag. 0.80E-01    1.5     0.05903001     -5416.9226831356 -5.84E-01
   273 Broy./Diag. 0.80E-01    1.5     0.06024941     -5419.8552315049 -2.93E+00
   274 Broy./Diag. 0.80E-01    1.5     0.01431157     -5418.5502645024  1.30E+00
   275 Broy./Diag. 0.80E-01    1.5     0.03526224     -5413.2931018522  5.26E+00
   276 Broy./Diag. 0.80E-01    1.5     0.01353434     -5412.7124949202  5.81E-01
   277 Broy./Diag. 0.80E-01    1.5     0.05204519     -5414.9050046084 -2.19E+00
   278 Broy./Diag. 0.80E-01    1.5     0.04208637     -5415.4228928320 -5.18E-01
   279 Broy./Diag. 0.80E-01    1.5     0.01497130     -5418.7336174116 -3.31E+00
   280 Broy./Diag. 0.80E-01    1.5     0.01099703     -5418.2003968814  5.33E-01
   281 Broy./Diag. 0.80E-01    1.5     0.01336585     -5419.6066522943 -1.41E+00
   282 Broy./Diag. 0.80E-01    1.5     0.06254885     -5418.0701340449  1.54E+00
   283 Broy./Diag. 0.80E-01    1.5     0.13401784     -5417.9311652528  1.39E-01
   284 Broy./Diag. 0.80E-01    1.5     0.04285497     -5419.7259503204 -1.79E+00
   285 Broy./Diag. 0.80E-01    1.5     0.08521112     -5417.3286479332  2.40E+00
   286 Broy./Diag. 0.80E-01    1.5     0.02196208     -5419.7041097072 -2.38E+00
   287 Broy./Diag. 0.80E-01    1.5     0.05813155     -5419.9010062175 -1.97E-01
   288 Broy./Diag. 0.80E-01    1.5     0.01617449     -5418.0925526026  1.81E+00
   289 Broy./Diag. 0.80E-01    1.5     0.04947376     -5416.4991873561  1.59E+00
   290 Broy./Diag. 0.80E-01    1.5     0.00826316     -5418.9546926484 -2.46E+00
   291 Broy./Diag. 0.80E-01    1.5     0.04105373     -5418.5365387510  4.18E-01
   292 Broy./Diag. 0.80E-01    1.5     0.02640060     -5418.9698916615 -4.33E-01
   293 Broy./Diag. 0.80E-01    1.5     0.00957323     -5419.4190761269 -4.49E-01
   294 Broy./Diag. 0.80E-01    1.5     0.02898564     -5418.8246734534  5.94E-01
   295 Broy./Diag. 0.80E-01    1.5     0.02157153     -5419.0404818206 -2.16E-01
   296 Broy./Diag. 0.80E-01    1.5     0.05204281     -5419.3740794025 -3.34E-01
   297 Broy./Diag. 0.80E-01    1.5     0.07640862     -5419.9579027672 -5.84E-01
   298 Broy./Diag. 0.80E-01    1.5     0.01206833     -5419.6873475292  2.71E-01
   299 Broy./Diag. 0.80E-01    1.5     0.01829090     -5419.5440698383  1.43E-01
   300 Broy./Diag. 0.80E-01    1.5     0.02973590     -5419.7608211553 -2.17E-01
   301 Broy./Diag. 0.80E-01    1.5     0.04314878     -5418.9704351358  7.90E-01
   302 Broy./Diag. 0.80E-01    1.5     0.04064435     -5419.4042728563 -4.34E-01
   303 Broy./Diag. 0.80E-01    1.5     0.04461609     -5417.8093617877  1.59E+00
   304 Broy./Diag. 0.80E-01    1.5     0.03832288     -5417.0865421405  7.23E-01
   305 Broy./Diag. 0.80E-01    1.5     0.02758117     -5419.3936444178 -2.31E+00
   306 Broy./Diag. 0.80E-01    1.5     0.00809203     -5414.7235294471  4.67E+00
   307 Broy./Diag. 0.80E-01    1.5     0.01622622     -5414.3706305736  3.53E-01
   308 Broy./Diag. 0.80E-01    1.5     0.08115081     -5412.6303983990  1.74E+00
   309 Broy./Diag. 0.80E-01    1.5     0.01379281     -5419.2368314389 -6.61E+00
   310 Broy./Diag. 0.80E-01    1.5     0.00878214     -5419.2211152384  1.57E-02
   311 Broy./Diag. 0.80E-01    1.5     0.03549947     -5419.0821630873  1.39E-01
   312 Broy./Diag. 0.80E-01    1.5     0.00609991     -5419.2553472257 -1.73E-01
   313 Broy./Diag. 0.80E-01    1.5     0.03693057     -5419.0603419544  1.95E-01
   314 Broy./Diag. 0.80E-01    1.5     0.00696347     -5418.2674803525  7.93E-01
   315 Broy./Diag. 0.80E-01    1.5     0.02323293     -5418.8502188499 -5.83E-01
   316 Broy./Diag. 0.80E-01    1.5     0.01640449     -5419.1353829357 -2.85E-01
   317 Broy./Diag. 0.80E-01    1.5     0.00422466     -5418.8196180077  3.16E-01
   318 Broy./Diag. 0.80E-01    1.5     0.00996122     -5418.0298802479  7.90E-01
   319 Broy./Diag. 0.80E-01    1.5     0.01511229     -5417.2156357034  8.14E-01
   320 Broy./Diag. 0.80E-01    1.5     0.00915105     -5417.4386222638 -2.23E-01
   321 Broy./Diag. 0.80E-01    1.5     0.03325320     -5417.8375820593 -3.99E-01
   322 Broy./Diag. 0.80E-01    1.5     0.02572150     -5418.0139509185 -1.76E-01
   323 Broy./Diag. 0.80E-01    1.5     0.03213357     -5417.4918870441  5.22E-01
   324 Broy./Diag. 0.80E-01    1.5     0.00734334     -5417.5442360031 -5.23E-02
   325 Broy./Diag. 0.80E-01    1.5     0.01942347     -5417.6880957340 -1.44E-01
   326 Broy./Diag. 0.80E-01    1.5     0.01987397     -5417.9018941005 -2.14E-01
   327 Broy./Diag. 0.80E-01    1.5     0.01299727     -5417.7597379339  1.42E-01
   328 Broy./Diag. 0.80E-01    1.5     0.00902350     -5417.9508384371 -1.91E-01
   329 Broy./Diag. 0.80E-01    1.5     0.00713471     -5417.8066805525  1.44E-01
   330 Broy./Diag. 0.80E-01    1.5     0.01261248     -5417.9161445407 -1.09E-01
   331 Broy./Diag. 0.80E-01    1.5     0.02213736     -5418.7102509556 -7.94E-01
   332 Broy./Diag. 0.80E-01    1.5     0.01741233     -5418.4577671086  2.52E-01
   333 Broy./Diag. 0.80E-01    1.5     0.00593514     -5419.2269705717 -7.69E-01
   334 Broy./Diag. 0.80E-01    1.5     0.00579463     -5419.0509195269  1.76E-01
   335 Broy./Diag. 0.80E-01    1.5     0.00758481     -5418.8611981386  1.90E-01
   336 Broy./Diag. 0.80E-01    1.5     0.01158990     -5419.6052915550 -7.44E-01
   337 Broy./Diag. 0.80E-01    1.5     0.01931861     -5418.8190133955  7.86E-01
   338 Broy./Diag. 0.80E-01    1.5     0.02726719     -5419.1599788279 -3.41E-01
   339 Broy./Diag. 0.80E-01    1.5     0.01301504     -5419.1474539915  1.25E-02
   340 Broy./Diag. 0.80E-01    1.5     0.02284838     -5418.6752972261  4.72E-01
   341 Broy./Diag. 0.80E-01    1.5     0.01885329     -5419.5039154667 -8.29E-01
   342 Broy./Diag. 0.80E-01    1.5     0.06245718     -5418.5681467018  9.36E-01
   343 Broy./Diag. 0.80E-01    1.5     0.02465655     -5419.4060745230 -8.38E-01
   344 Broy./Diag. 0.80E-01    1.5     0.02516748     -5419.6163102664 -2.10E-01
   345 Broy./Diag. 0.80E-01    1.5     0.03200379     -5418.0796221815  1.54E+00
   346 Broy./Diag. 0.80E-01    1.5     0.04052417     -5416.8455298429  1.23E+00
   347 Broy./Diag. 0.80E-01    1.5     0.02490683     -5419.1957929941 -2.35E+00
   348 Broy./Diag. 0.80E-01    1.5     0.00606944     -5418.9991418675  1.97E-01
   349 Broy./Diag. 0.80E-01    1.5     0.06680956     -5418.2598977624  7.39E-01
   350 Broy./Diag. 0.80E-01    1.5     0.03726997     -5418.3588729560 -9.90E-02
   351 Broy./Diag. 0.80E-01    1.5     0.02420312     -5416.2324225390  2.13E+00
   352 Broy./Diag. 0.80E-01    1.5     0.03454030     -5417.8621002524 -1.63E+00
   353 Broy./Diag. 0.80E-01    1.5     0.01157790     -5418.5670486673 -7.05E-01
   354 Broy./Diag. 0.80E-01    1.5     0.04552749     -5417.7359992898  8.31E-01
   355 Broy./Diag. 0.80E-01    1.5     0.03717247     -5418.4517687562 -7.16E-01
   356 Broy./Diag. 0.80E-01    1.5     0.01494853     -5417.5515317103  9.00E-01
   357 Broy./Diag. 0.80E-01    1.5     0.04202998     -5418.2872055751 -7.36E-01
   358 Broy./Diag. 0.80E-01    1.5     0.01896952     -5417.4473265867  8.40E-01
   359 Broy./Diag. 0.80E-01    1.5     0.02309266     -5417.0804903043  3.67E-01
   360 Broy./Diag. 0.80E-01    1.5     0.02195783     -5415.7390283712  1.34E+00
   361 Broy./Diag. 0.80E-01    1.5     0.02757889     -5416.1438800901 -4.05E-01
   362 Broy./Diag. 0.80E-01    1.5     0.03324820     -5416.2188496128 -7.50E-02
   363 Broy./Diag. 0.80E-01    1.5     0.00957256     -5419.2957512859 -3.08E+00
   364 Broy./Diag. 0.80E-01    1.5     0.03799312     -5418.5086170122  7.87E-01
   365 Broy./Diag. 0.80E-01    1.5     0.01550206     -5419.1366917108 -6.28E-01
   366 Broy./Diag. 0.80E-01    1.5     0.01878707     -5419.4686069579 -3.32E-01
   367 Broy./Diag. 0.80E-01    1.5     0.01795253     -5418.5586671415  9.10E-01
