 DBCSR| CPU Multiplication driver                                           XSMM (U)
 DBCSR| Multrec recursion limit                                              512 (U)
 DBCSR| Multiplication stack size                                           1000 (D)
 DBCSR| Maximum elements for images                                    UNLIMITED (U)
 DBCSR| Multiplicative factor virtual images                                   1 (U)
 DBCSR| Use multiplication densification                                       T (D)
 DBCSR| Multiplication size stacks                                             3 (U)
 DBCSR| Use memory pool for CPU allocation                                     F (U)
 DBCSR| Number of 3D layers                                               SINGLE (U)
 DBCSR| Use MPI memory allocation                                              F (U)
 DBCSR| Use RMA algorithm                                                      F (U)
 DBCSR| Use Communication thread                                               T (U)
 DBCSR| Communication thread load                                             87 (D)
 DBCSR| MPI: My process id                                                     0
 DBCSR| MPI: Number of processes                                             128
 DBCSR| OMP: Current number of threads                                         1
 DBCSR| OMP: Max number of threads                                             1
 DBCSR| Split modifier for TAS multiplication algorithm                  1.0E+00 (U)


  **** **** ******  **  PROGRAM STARTED AT               2023-02-15 13:12:40.440
 ***** ** ***  *** **   PROGRAM STARTED ON                             nid001452
 **    ****   ******    PROGRAM STARTED BY                                cahart
 ***** **    ** ** **   PROGRAM PROCESS ID                                233997
  **** **  *******  **  PROGRAM STARTED IN /mnt/lustre/a2fs-work2/work/e05/e05/c
                                           ahart/postdoc/masters/ni/archer2/slab
                                           /optimise/magnetisation/scf_1e-4_temp
                                           -2000_mos-1000_alpha-0.08_beta-1.5_pe
                                           riodic-xyz/search/0.24_0.7

 CP2K| version string:                 CP2K version 2023.1 (Development Version)
 CP2K| source code revision number:                                  git:964cd58
 CP2K| cp2kflags: omp libint fftw3 libxc elpa parallel scalapack xsmm plumed2 mk
 CP2K|            l
 CP2K| is freely available from                            https://www.cp2k.org/
 CP2K| Program compiled at                          Mon 13 Feb 17:05:14 GMT 2023
 CP2K| Program compiled on                                                  ln01
 CP2K| Program compiled for                                              ARCHER2
 CP2K| Data directory path    /work/e05/e05/cahart/cp2k/cp2k-2023.1/cp2k-2023.1-
 CP2K| Input file name                                                  cp2k.inp

 GLOBAL| Force Environment number                                              1
 GLOBAL| Basis set file name                                        BASIS_MOLOPT
 GLOBAL| Potential file name                                      GTH_POTENTIALS
 GLOBAL| MM Potential file name                                     MM_POTENTIAL
 GLOBAL| Coordinate file name                                      __STD_INPUT__
 GLOBAL| Method name                                                        CP2K
 GLOBAL| Project name                                                    Ni_bulk
 GLOBAL| Run type                                                         ENERGY
 GLOBAL| FFT library                                                       FFTW3
 GLOBAL| Diagonalization library                                            ELPA
 GLOBAL| DGEMM library                                                      BLAS
 GLOBAL| Minimum number of eigenvectors for ELPA usage                        16
 GLOBAL| Orthonormality check for eigenvectors                          DISABLED
 GLOBAL| Matrix multiplication library                                 ScaLAPACK
 GLOBAL| All-to-all communication in single precision                          F
 GLOBAL| FFTs using library dependent lengths                                  F
 GLOBAL| Grid backend                                                       AUTO
 GLOBAL| Global print level                                               MEDIUM
 GLOBAL| MPI I/O enabled                                                       T
 GLOBAL| Total number of message passing processes                           128
 GLOBAL| Number of threads for this process                                    1
 GLOBAL| This output is from process                                           0
 GLOBAL| Stack size for threads created by OpenMP (OMP_STACKSIZE)        default
 GLOBAL| CPU model name                          AMD EPYC 7742 64-Core Processor
 GLOBAL| CPUID                                                              1002

 MEMORY| system memory details [Kb]
 MEMORY|                        rank 0           min           max       average
 MEMORY| MemTotal            263527824     263527824     263527824     263527824
 MEMORY| MemFree             238600736     238600736     238600736     238600736
 MEMORY| Buffers                 25076         25076         25076         25076
 MEMORY| Cached                 734208        734208        734208        734208
 MEMORY| Slab                  1629632       1629632       1629632       1629632
 MEMORY| SReclaimable           124104        124104        124104        124104
 MEMORY| MemLikelyFree       239484124     239484124     239484124     239484124


 *** Fundamental physical constants (SI units) ***

 *** Literature: B. J. Mohr and B. N. Taylor,
 ***             CODATA recommended values of the fundamental physical
 ***             constants: 2006, Web Version 5.1
 ***             http://physics.nist.gov/constants

 Speed of light in vacuum [m/s]                             2.99792458000000E+08
 Magnetic constant or permeability of vacuum [N/A**2]       1.25663706143592E-06
 Electric constant or permittivity of vacuum [F/m]          8.85418781762039E-12
 Planck constant (h) [J*s]                                  6.62606896000000E-34
 Planck constant (h-bar) [J*s]                              1.05457162825177E-34
 Elementary charge [C]                                      1.60217648700000E-19
 Electron mass [kg]                                         9.10938215000000E-31
 Electron g factor [ ]                                     -2.00231930436220E+00
 Proton mass [kg]                                           1.67262163700000E-27
 Fine-structure constant                                    7.29735253760000E-03
 Rydberg constant [1/m]                                     1.09737315685270E+07
 Avogadro constant [1/mol]                                  6.02214179000000E+23
 Boltzmann constant [J/K]                                   1.38065040000000E-23
 Atomic mass unit [kg]                                      1.66053878200000E-27
 Bohr radius [m]                                            5.29177208590000E-11

 *** Conversion factors ***

 [u] -> [a.u.]                                              1.82288848426455E+03
 [Angstrom] -> [Bohr] = [a.u.]                              1.88972613288564E+00
 [a.u.] = [Bohr] -> [Angstrom]                              5.29177208590000E-01
 [a.u.] -> [s]                                              2.41888432650478E-17
 [a.u.] -> [fs]                                             2.41888432650478E-02
 [a.u.] -> [J]                                              4.35974393937059E-18
 [a.u.] -> [N]                                              8.23872205491840E-08
 [a.u.] -> [K]                                              3.15774647902944E+05
 [a.u.] -> [kJ/mol]                                         2.62549961709828E+03
 [a.u.] -> [kcal/mol]                                       6.27509468713739E+02
 [a.u.] -> [Pa]                                             2.94210107994716E+13
 [a.u.] -> [bar]                                            2.94210107994716E+08
 [a.u.] -> [atm]                                            2.90362800883016E+08
 [a.u.] -> [eV]                                             2.72113838565563E+01
 [a.u.] -> [Hz]                                             6.57968392072181E+15
 [a.u.] -> [1/cm] (wave numbers)                            2.19474631370540E+05
 [a.u./Bohr**2] -> [1/cm]                                   5.14048714338585E+03
 

 CELL_TOP| Volume [angstrom^3]:                                       983.249569
 CELL_TOP| Vector a [angstrom     7.012     0.000     0.000   |a| =     7.011596
 CELL_TOP| Vector b [angstrom     0.000     7.012     0.000   |b| =     7.011596
 CELL_TOP| Vector c [angstrom     0.000     0.000    20.000   |c| =    20.000000
 CELL_TOP| Angle (b,c), alpha [degree]:                                90.000000
 CELL_TOP| Angle (a,c), beta  [degree]:                                90.000000
 CELL_TOP| Angle (a,b), gamma [degree]:                                90.000000
 CELL_TOP| Numerically orthorhombic:                                         YES
 CELL_TOP| Periodicity                                                       XYZ

 GENERATE|  Preliminary Number of Bonds generated:                             0
 GENERATE|  Achieved consistency in connectivity generation.

 CELL| Volume [angstrom^3]:                                           983.249569
 CELL| Vector a [angstrom]:       7.012     0.000     0.000   |a| =     7.011596
 CELL| Vector b [angstrom]:       0.000     7.012     0.000   |b| =     7.011596
 CELL| Vector c [angstrom]:       0.000     0.000    20.000   |c| =    20.000000
 CELL| Angle (b,c), alpha [degree]:                                    90.000000
 CELL| Angle (a,c), beta  [degree]:                                    90.000000
 CELL| Angle (a,b), gamma [degree]:                                    90.000000
 CELL| Numerically orthorhombic:                                             YES
 CELL| Periodicity                                                           XYZ

 CELL_REF| Volume [angstrom^3]:                                       983.249569
 CELL_REF| Vector a [angstrom     7.012     0.000     0.000   |a| =     7.011596
 CELL_REF| Vector b [angstrom     0.000     7.012     0.000   |b| =     7.011596
 CELL_REF| Vector c [angstrom     0.000     0.000    20.000   |c| =    20.000000
 CELL_REF| Angle (b,c), alpha [degree]:                                90.000000
 CELL_REF| Angle (a,c), beta  [degree]:                                90.000000
 CELL_REF| Angle (a,b), gamma [degree]:                                90.000000
 CELL_REF| Numerically orthorhombic:                                         YES
 CELL_REF| Periodicity                                                       XYZ

 *** WARNING in cryssym.F:165 :: Symmetry library SPGLIB not available ***


 *******************************************************************************
                                    Kpoints
 *******************************************************************************
 BRILLOUIN| K-point scheme                                        Monkhorst-Pack
 BRILLOUIN| K-Point grid                                             4    4    1
 BRILLOUIN| Accuracy in Symmetry determination                      0.100000E-05
 BRILLOUIN| K-Point point group symmetrization                               OFF
 BRILLOUIN| Wavefunction type                                            COMPLEX
 BRILLOUIN| List of Kpoints [2 Pi/Bohr]                                        8
 BRILLOUIN| Number           Weight            X              Y              Z
 BRILLOUIN|     1           0.12500       -0.37500       -0.37500        0.00000
 BRILLOUIN|     2           0.12500       -0.37500       -0.12500        0.00000
 BRILLOUIN|     3           0.12500       -0.37500        0.12500        0.00000
 BRILLOUIN|     4           0.12500       -0.37500        0.37500        0.00000
 BRILLOUIN|     5           0.12500       -0.12500       -0.37500        0.00000
 BRILLOUIN|     6           0.12500       -0.12500       -0.12500        0.00000
 BRILLOUIN|     7           0.12500       -0.12500        0.12500        0.00000
 BRILLOUIN|     8           0.12500       -0.12500        0.37500        0.00000
 *******************************************************************************

 *******************************************************************************
 *******************************************************************************
 **                                                                           **
 **     #####                         ##              ##                      **
 **    ##   ##            ##          ##              ##                      **
 **   ##     ##                       ##            ######                    **
 **   ##     ##  ##   ##  ##   #####  ##  ##   ####   ##    #####    #####    **
 **   ##     ##  ##   ##  ##  ##      ## ##   ##      ##   ##   ##  ##   ##   **
 **   ##  ## ##  ##   ##  ##  ##      ####     ###    ##   ######   ######    **
 **    ##  ###   ##   ##  ##  ##      ## ##      ##   ##   ##       ##        **
 **     #######   #####   ##   #####  ##  ##  ####    ##    #####   ##        **
 **           ##                                                    ##        **
 **                                                                           **
 **                                                ... make the atoms dance   **
 **                                                                           **
 **            Copyright (C) by CP2K developers group (2000-2023)             **
 **                      J. Chem. Phys. 152, 194103 (2020)                    **
 **                                                                           **
 *******************************************************************************

 *** WARNING in qs_environment.F:1456 :: Number of electrons will be ***
 *** overwritten by NELEC_ALPHA and NELEC_BETA, multiplicity will be ***
 *** ignored.                                                        ***

 Number of electrons should be                                               576
 Sum of NELEC_ALPHA and NELEC_BETA is                                    576.000

 *** WARNING in qs_environment.F:1488 :: NELEC_ALPHA is not an integer, ***
 *** many features will not be supported.                               ***


 *** WARNING in qs_environment.F:1500 :: NELEC_BETA is not an integer, ***
 *** many features will not be supported.                              ***


 *** WARNING in qs_environment.F:1532 :: More ADDED_MOs requested for beta ***
 *** spin than available.                                                  ***


 *** WARNING in qs_environment.F:1548 :: More added MOs requested than     ***
 *** available. The full set of unoccupied MOs will be used. Use           ***
 *** 'ADDED_MOS -1' to always use all available MOs and to get rid of this ***
 *** warning.                                                              ***


 DFT| Spin unrestricted (spin-polarized) Kohn-Sham calculation               UKS
 DFT| Multiplicity                                                             1
 DFT| Number of spin states                                                    2
 DFT| Charge                                                                   0
 DFT| Self-interaction correction (SIC)                                       NO
 DFT| Cutoffs: density                                              1.000000E-10
 DFT|          gradient                                             1.000000E-10
 DFT|          tau                                                  1.000000E-10
 DFT|          cutoff_smoothing_range                               0.000000E+00
 DFT| XC density smoothing                                                  NONE
 DFT| XC derivatives                                                          PW

 FUNCTIONAL| PBE:
 FUNCTIONAL| J.P.Perdew, K.Burke, M.Ernzerhof, Phys. Rev. Letter, vol. 77, n 18,
 FUNCTIONAL|  pp. 3865-3868, (1996){spin polarized}                             

 vdW POTENTIAL|                                                   Pair Potential
 vdW POTENTIAL|          DFT-D3 (Version 3.1)
 vdW POTENTIAL|          Potential Form: S. Grimme et al, JCP 132: 154104 (2010)
 vdW POTENTIAL|          Zero Damping
 vdW POTENTIAL|          Cutoff Radius [Bohr]:                             20.00
 vdW POTENTIAL|          s6 Scaling Factor:                               1.0000
 vdW POTENTIAL|          sr6 Scaling Factor:                              1.2170
 vdW POTENTIAL|          s8 Scaling Factor:                               0.7220
 vdW POTENTIAL|          Cutoff for CN calculation:                   0.1000E-05

 QS| Method:                                                                 GPW
 QS| Density plane wave grid type                        NON-SPHERICAL FULLSPACE
 QS| Number of grid levels:                                                    5
 QS| Density cutoff [a.u.]:                                                300.0
 QS| Multi grid cutoff [a.u.]: 1) grid level                               300.0
 QS|                           2) grid level                               100.0
 QS|                           3) grid level                                33.3
 QS|                           4) grid level                                11.1
 QS|                           5) grid level                                 3.7
 QS| Grid level progression factor:                                          3.0
 QS| Relative density cutoff [a.u.]:                                        30.0
 QS| Interaction thresholds: eps_pgf_orb:                                1.0E-06
 QS|                         eps_filter_matrix:                          0.0E+00
 QS|                         eps_core_charge:                            1.0E-14
 QS|                         eps_rho_gspace:                             1.0E-12
 QS|                         eps_rho_rspace:                             1.0E-12
 QS|                         eps_gvg_rspace:                             1.0E-06
 QS|                         eps_ppl:                                    1.0E-02
 QS|                         eps_ppnl:                                   1.0E-08


 ATOMIC KIND INFORMATION

  1. Atomic kind: Ni_i                                  Number of atoms:      16

     Orbital Basis Set                                        DZVP-MOLOPT-SR-GTH

       Number of orbital shell sets:                                           1
       Number of orbital shells:                                               8
       Number of primitive Cartesian functions:                                6
       Number of Cartesian basis functions:                                   31
       Number of spherical basis functions:                                   26
       Norm type:                                                              2

       Normalised Cartesian orbitals:

                        Set   Shell   Orbital            Exponent    Coefficient

                          1       1    2s               10.077428      -0.684558
                                                         5.847736      -0.844524
                                                         2.494033       1.088856
                                                         0.988355       0.395503
                                                         0.344978       0.010224
                                                         0.099466      -0.003250

                          1       2    3s               10.077428       0.096747
                                                         5.847736       0.162504
                                                         2.494033      -0.297192
                                                         0.988355      -0.319752
                                                         0.344978       0.088318
                                                         0.099466       0.118587

                          1       3    4s               10.077428       0.036437
                                                         5.847736      -0.381480
                                                         2.494033       0.003759
                                                         0.988355      -1.048256
                                                         0.344978       0.855825
                                                         0.099466      -0.176350

                          1       4    3px              10.077428      -3.133913
                                                         5.847736       3.027656
                                                         2.494033       2.353227
                                                         0.988355       0.554184
                                                         0.344978       0.019462
                                                         0.099466      -0.000291
                          1       4    3py              10.077428      -3.133913
                                                         5.847736       3.027656
                                                         2.494033       2.353227
                                                         0.988355       0.554184
                                                         0.344978       0.019462
                                                         0.099466      -0.000291
                          1       4    3pz              10.077428      -3.133913
                                                         5.847736       3.027656
                                                         2.494033       2.353227
                                                         0.988355       0.554184
                                                         0.344978       0.019462
                                                         0.099466      -0.000291

                          1       5    4px              10.077428      -0.112729
                                                         5.847736      -0.114008
                                                         2.494033      -0.347303
                                                         0.988355      -0.110323
                                                         0.344978       0.154096
                                                         0.099466       0.058386
                          1       5    4py              10.077428      -0.112729
                                                         5.847736      -0.114008
                                                         2.494033      -0.347303
                                                         0.988355      -0.110323
                                                         0.344978       0.154096
                                                         0.099466       0.058386
                          1       5    4pz              10.077428      -0.112729
                                                         5.847736      -0.114008
                                                         2.494033      -0.347303
                                                         0.988355      -0.110323
                                                         0.344978       0.154096
                                                         0.099466       0.058386

                          1       6    4dx2             10.077428       8.232726
                                                         5.847736       9.105758
                                                         2.494033       2.849835
                                                         0.988355       0.554319
                                                         0.344978       0.067245
                                                         0.099466       0.001940
                          1       6    4dxy             10.077428      14.259500
                                                         5.847736      15.771636
                                                         2.494033       4.936060
                                                         0.988355       0.960109
                                                         0.344978       0.116472
                                                         0.099466       0.003360
                          1       6    4dxz             10.077428      14.259500
                                                         5.847736      15.771636
                                                         2.494033       4.936060
                                                         0.988355       0.960109
                                                         0.344978       0.116472
                                                         0.099466       0.003360
                          1       6    4dy2             10.077428       8.232726
                                                         5.847736       9.105758
                                                         2.494033       2.849835
                                                         0.988355       0.554319
                                                         0.344978       0.067245
                                                         0.099466       0.001940
                          1       6    4dyz             10.077428      14.259500
                                                         5.847736      15.771636
                                                         2.494033       4.936060
                                                         0.988355       0.960109
                                                         0.344978       0.116472
                                                         0.099466       0.003360
                          1       6    4dz2             10.077428       8.232726
                                                         5.847736       9.105758
                                                         2.494033       2.849835
                                                         0.988355       0.554319
                                                         0.344978       0.067245
                                                         0.099466       0.001940

                          1       7    5dx2             10.077428      -2.715373
                                                         5.847736      -4.020640
                                                         2.494033      -1.397569
                                                         0.988355      -0.076143
                                                         0.344978       0.033435
                                                         0.099466       0.026032
                          1       7    5dxy             10.077428      -4.703164
                                                         5.847736      -6.963952
                                                         2.494033      -2.420661
                                                         0.988355      -0.131883
                                                         0.344978       0.057911
                                                         0.099466       0.045088
                          1       7    5dxz             10.077428      -4.703164
                                                         5.847736      -6.963952
                                                         2.494033      -2.420661
                                                         0.988355      -0.131883
                                                         0.344978       0.057911
                                                         0.099466       0.045088
                          1       7    5dy2             10.077428      -2.715373
                                                         5.847736      -4.020640
                                                         2.494033      -1.397569
                                                         0.988355      -0.076143
                                                         0.344978       0.033435
                                                         0.099466       0.026032
                          1       7    5dyz             10.077428      -4.703164
                                                         5.847736      -6.963952
                                                         2.494033      -2.420661
                                                         0.988355      -0.131883
                                                         0.344978       0.057911
                                                         0.099466       0.045088
                          1       7    5dz2             10.077428      -2.715373
                                                         5.847736      -4.020640
                                                         2.494033      -1.397569
                                                         0.988355      -0.076143
                                                         0.344978       0.033435
                                                         0.099466       0.026032

                          1       8    5fx3             10.077428      -0.467694
                                                         5.847736       0.618100
                                                         2.494033       0.066069
                                                         0.988355       0.262898
                                                         0.344978       0.004720
                                                         0.099466       0.007748
                          1       8    5fx2y            10.077428      -1.045795
                                                         5.847736       1.382114
                                                         2.494033       0.147734
                                                         0.988355       0.587859
                                                         0.344978       0.010555
                                                         0.099466       0.017325
                          1       8    5fx2z            10.077428      -1.045795
                                                         5.847736       1.382114
                                                         2.494033       0.147734
                                                         0.988355       0.587859
                                                         0.344978       0.010555
                                                         0.099466       0.017325
                          1       8    5fxy2            10.077428      -1.045795
                                                         5.847736       1.382114
                                                         2.494033       0.147734
                                                         0.988355       0.587859
                                                         0.344978       0.010555
                                                         0.099466       0.017325
                          1       8    5fxyz            10.077428      -1.811371
                                                         5.847736       2.393892
                                                         2.494033       0.255883
                                                         0.988355       1.018201
                                                         0.344978       0.018282
                                                         0.099466       0.030008
                          1       8    5fxz2            10.077428      -1.045795
                                                         5.847736       1.382114
                                                         2.494033       0.147734
                                                         0.988355       0.587859
                                                         0.344978       0.010555
                                                         0.099466       0.017325
                          1       8    5fy3             10.077428      -0.467694
                                                         5.847736       0.618100
                                                         2.494033       0.066069
                                                         0.988355       0.262898
                                                         0.344978       0.004720
                                                         0.099466       0.007748
                          1       8    5fy2z            10.077428      -1.045795
                                                         5.847736       1.382114
                                                         2.494033       0.147734
                                                         0.988355       0.587859
                                                         0.344978       0.010555
                                                         0.099466       0.017325
                          1       8    5fyz2            10.077428      -1.045795
                                                         5.847736       1.382114
                                                         2.494033       0.147734
                                                         0.988355       0.587859
                                                         0.344978       0.010555
                                                         0.099466       0.017325
                          1       8    5fz3             10.077428      -0.467694
                                                         5.847736       0.618100
                                                         2.494033       0.066069
                                                         0.988355       0.262898
                                                         0.344978       0.004720
                                                         0.099466       0.007748

       Atomic covalent radius [Angstrom]:                                  1.150

       Atomic van der Waals radius [Angstrom]:                             1.630

     GTH Potential information for                                   GTH-PBE-q18

       Description:                       Goedecker-Teter-Hutter pseudopotential
                                           Goedecker et al., PRB 54, 1703 (1996)
                                          Hartwigsen et al., PRB 58, 3641 (1998)
                                                      Krack, TCA 114, 145 (2005)

       Gaussian exponent of the core charge distribution:               4.081633
       Electronic configuration (s p d ...):                           4   6   8

       Parameters of the local part of the GTH pseudopotential:

                          rloc        C1          C2          C3          C4
                        0.350000    2.102166    0.648484

       Parameters of the non-local part of the GTH pseudopotential:

                   l      r(l)      h(i,j,l)

                   0    0.261295    0.622658    9.970227
                                    9.970227  -12.871507
                   1    0.224253  -11.142708   12.429566
                                   12.429566  -14.706861
                   2    0.215348  -12.628146

  2. Atomic kind: Ni_b                                  Number of atoms:      16

     Orbital Basis Set                                        DZVP-MOLOPT-SR-GTH

       Number of orbital shell sets:                                           1
       Number of orbital shells:                                               8
       Number of primitive Cartesian functions:                                6
       Number of Cartesian basis functions:                                   31
       Number of spherical basis functions:                                   26
       Norm type:                                                              2

       Normalised Cartesian orbitals:

                        Set   Shell   Orbital            Exponent    Coefficient

                          1       1    2s               10.077428      -0.684558
                                                         5.847736      -0.844524
                                                         2.494033       1.088856
                                                         0.988355       0.395503
                                                         0.344978       0.010224
                                                         0.099466      -0.003250

                          1       2    3s               10.077428       0.096747
                                                         5.847736       0.162504
                                                         2.494033      -0.297192
                                                         0.988355      -0.319752
                                                         0.344978       0.088318
                                                         0.099466       0.118587

                          1       3    4s               10.077428       0.036437
                                                         5.847736      -0.381480
                                                         2.494033       0.003759
                                                         0.988355      -1.048256
                                                         0.344978       0.855825
                                                         0.099466      -0.176350

                          1       4    3px              10.077428      -3.133913
                                                         5.847736       3.027656
                                                         2.494033       2.353227
                                                         0.988355       0.554184
                                                         0.344978       0.019462
                                                         0.099466      -0.000291
                          1       4    3py              10.077428      -3.133913
                                                         5.847736       3.027656
                                                         2.494033       2.353227
                                                         0.988355       0.554184
                                                         0.344978       0.019462
                                                         0.099466      -0.000291
                          1       4    3pz              10.077428      -3.133913
                                                         5.847736       3.027656
                                                         2.494033       2.353227
                                                         0.988355       0.554184
                                                         0.344978       0.019462
                                                         0.099466      -0.000291

                          1       5    4px              10.077428      -0.112729
                                                         5.847736      -0.114008
                                                         2.494033      -0.347303
                                                         0.988355      -0.110323
                                                         0.344978       0.154096
                                                         0.099466       0.058386
                          1       5    4py              10.077428      -0.112729
                                                         5.847736      -0.114008
                                                         2.494033      -0.347303
                                                         0.988355      -0.110323
                                                         0.344978       0.154096
                                                         0.099466       0.058386
                          1       5    4pz              10.077428      -0.112729
                                                         5.847736      -0.114008
                                                         2.494033      -0.347303
                                                         0.988355      -0.110323
                                                         0.344978       0.154096
                                                         0.099466       0.058386

                          1       6    4dx2             10.077428       8.232726
                                                         5.847736       9.105758
                                                         2.494033       2.849835
                                                         0.988355       0.554319
                                                         0.344978       0.067245
                                                         0.099466       0.001940
                          1       6    4dxy             10.077428      14.259500
                                                         5.847736      15.771636
                                                         2.494033       4.936060
                                                         0.988355       0.960109
                                                         0.344978       0.116472
                                                         0.099466       0.003360
                          1       6    4dxz             10.077428      14.259500
                                                         5.847736      15.771636
                                                         2.494033       4.936060
                                                         0.988355       0.960109
                                                         0.344978       0.116472
                                                         0.099466       0.003360
                          1       6    4dy2             10.077428       8.232726
                                                         5.847736       9.105758
                                                         2.494033       2.849835
                                                         0.988355       0.554319
                                                         0.344978       0.067245
                                                         0.099466       0.001940
                          1       6    4dyz             10.077428      14.259500
                                                         5.847736      15.771636
                                                         2.494033       4.936060
                                                         0.988355       0.960109
                                                         0.344978       0.116472
                                                         0.099466       0.003360
                          1       6    4dz2             10.077428       8.232726
                                                         5.847736       9.105758
                                                         2.494033       2.849835
                                                         0.988355       0.554319
                                                         0.344978       0.067245
                                                         0.099466       0.001940

                          1       7    5dx2             10.077428      -2.715373
                                                         5.847736      -4.020640
                                                         2.494033      -1.397569
                                                         0.988355      -0.076143
                                                         0.344978       0.033435
                                                         0.099466       0.026032
                          1       7    5dxy             10.077428      -4.703164
                                                         5.847736      -6.963952
                                                         2.494033      -2.420661
                                                         0.988355      -0.131883
                                                         0.344978       0.057911
                                                         0.099466       0.045088
                          1       7    5dxz             10.077428      -4.703164
                                                         5.847736      -6.963952
                                                         2.494033      -2.420661
                                                         0.988355      -0.131883
                                                         0.344978       0.057911
                                                         0.099466       0.045088
                          1       7    5dy2             10.077428      -2.715373
                                                         5.847736      -4.020640
                                                         2.494033      -1.397569
                                                         0.988355      -0.076143
                                                         0.344978       0.033435
                                                         0.099466       0.026032
                          1       7    5dyz             10.077428      -4.703164
                                                         5.847736      -6.963952
                                                         2.494033      -2.420661
                                                         0.988355      -0.131883
                                                         0.344978       0.057911
                                                         0.099466       0.045088
                          1       7    5dz2             10.077428      -2.715373
                                                         5.847736      -4.020640
                                                         2.494033      -1.397569
                                                         0.988355      -0.076143
                                                         0.344978       0.033435
                                                         0.099466       0.026032

                          1       8    5fx3             10.077428      -0.467694
                                                         5.847736       0.618100
                                                         2.494033       0.066069
                                                         0.988355       0.262898
                                                         0.344978       0.004720
                                                         0.099466       0.007748
                          1       8    5fx2y            10.077428      -1.045795
                                                         5.847736       1.382114
                                                         2.494033       0.147734
                                                         0.988355       0.587859
                                                         0.344978       0.010555
                                                         0.099466       0.017325
                          1       8    5fx2z            10.077428      -1.045795
                                                         5.847736       1.382114
                                                         2.494033       0.147734
                                                         0.988355       0.587859
                                                         0.344978       0.010555
                                                         0.099466       0.017325
                          1       8    5fxy2            10.077428      -1.045795
                                                         5.847736       1.382114
                                                         2.494033       0.147734
                                                         0.988355       0.587859
                                                         0.344978       0.010555
                                                         0.099466       0.017325
                          1       8    5fxyz            10.077428      -1.811371
                                                         5.847736       2.393892
                                                         2.494033       0.255883
                                                         0.988355       1.018201
                                                         0.344978       0.018282
                                                         0.099466       0.030008
                          1       8    5fxz2            10.077428      -1.045795
                                                         5.847736       1.382114
                                                         2.494033       0.147734
                                                         0.988355       0.587859
                                                         0.344978       0.010555
                                                         0.099466       0.017325
                          1       8    5fy3             10.077428      -0.467694
                                                         5.847736       0.618100
                                                         2.494033       0.066069
                                                         0.988355       0.262898
                                                         0.344978       0.004720
                                                         0.099466       0.007748
                          1       8    5fy2z            10.077428      -1.045795
                                                         5.847736       1.382114
                                                         2.494033       0.147734
                                                         0.988355       0.587859
                                                         0.344978       0.010555
                                                         0.099466       0.017325
                          1       8    5fyz2            10.077428      -1.045795
                                                         5.847736       1.382114
                                                         2.494033       0.147734
                                                         0.988355       0.587859
                                                         0.344978       0.010555
                                                         0.099466       0.017325
                          1       8    5fz3             10.077428      -0.467694
                                                         5.847736       0.618100
                                                         2.494033       0.066069
                                                         0.988355       0.262898
                                                         0.344978       0.004720
                                                         0.099466       0.007748

       Atomic covalent radius [Angstrom]:                                  1.150

       Atomic van der Waals radius [Angstrom]:                             1.630

     GTH Potential information for                                   GTH-PBE-q18

       Description:                       Goedecker-Teter-Hutter pseudopotential
                                           Goedecker et al., PRB 54, 1703 (1996)
                                          Hartwigsen et al., PRB 58, 3641 (1998)
                                                      Krack, TCA 114, 145 (2005)

       Gaussian exponent of the core charge distribution:               4.081633
       Electronic configuration (s p d ...):                           4   6   8

       Parameters of the local part of the GTH pseudopotential:

                          rloc        C1          C2          C3          C4
                        0.350000    2.102166    0.648484

       Parameters of the non-local part of the GTH pseudopotential:

                   l      r(l)      h(i,j,l)

                   0    0.261295    0.622658    9.970227
                                    9.970227  -12.871507
                   1    0.224253  -11.142708   12.429566
                                   12.429566  -14.706861
                   2    0.215348  -12.628146


 MOLECULE KIND INFORMATION


 All atoms are their own molecule, skipping detailed information


 TOTAL NUMBERS AND MAXIMUM NUMBERS

  Total number of            - Atomic kinds:                                   2
                             - Atoms:                                         32
                             - Shell sets:                                    32
                             - Shells:                                       256
                             - Primitive Cartesian functions:                192
                             - Cartesian basis functions:                    992
                             - Spherical basis functions:                    832

  Maximum angular momentum of- Orbital basis functions:                        3
                             - Local part of the GTH pseudopotential:          2
                             - Non-local part of the GTH pseudopotential:      3


 MODULE QUICKSTEP: ATOMIC COORDINATES IN ANGSTROM

   Atom Kind Element         X             Y             Z       Z(eff)     Mass
      1    1 Ni   28      0.876298      0.876298      7.370500  18.0000  58.6934
      2    1 Ni   28      0.876298      4.382298      7.370500  18.0000  58.6934
      3    1 Ni   28      2.629298      2.629298      7.370500  18.0000  58.6934
      4    1 Ni   28      2.629298      6.135298      7.370500  18.0000  58.6934
      5    1 Ni   28      4.382298      0.876298      7.370500  18.0000  58.6934
      6    1 Ni   28      4.382298      4.382298      7.370500  18.0000  58.6934
      7    1 Ni   28      6.135298      2.629298      7.370500  18.0000  58.6934
      8    1 Ni   28      6.135298      6.135298      7.370500  18.0000  58.6934
      9    2 Ni   28      0.876298      2.629298      9.123500  18.0000  58.6934
     10    2 Ni   28      0.876298      6.135298      9.123500  18.0000  58.6934
     11    2 Ni   28      2.629298      0.876298      9.123500  18.0000  58.6934
     12    2 Ni   28      2.629298      4.382298      9.123500  18.0000  58.6934
     13    2 Ni   28      4.382298      2.629298      9.123500  18.0000  58.6934
     14    2 Ni   28      4.382298      6.135298      9.123500  18.0000  58.6934
     15    2 Ni   28      6.135298      0.876298      9.123500  18.0000  58.6934
     16    2 Ni   28      6.135298      4.382298      9.123500  18.0000  58.6934
     17    2 Ni   28      0.876298      0.876298     10.876500  18.0000  58.6934
     18    2 Ni   28      0.876298      4.382298     10.876500  18.0000  58.6934
     19    2 Ni   28      2.629298      2.629298     10.876500  18.0000  58.6934
     20    2 Ni   28      2.629298      6.135298     10.876500  18.0000  58.6934
     21    2 Ni   28      4.382298      0.876298     10.876500  18.0000  58.6934
     22    2 Ni   28      4.382298      4.382298     10.876500  18.0000  58.6934
     23    2 Ni   28      6.135298      2.629298     10.876500  18.0000  58.6934
     24    2 Ni   28      6.135298      6.135298     10.876500  18.0000  58.6934
     25    1 Ni   28      0.876298      2.629298     12.629500  18.0000  58.6934
     26    1 Ni   28      0.876298      6.135298     12.629500  18.0000  58.6934
     27    1 Ni   28      2.629298      0.876298     12.629500  18.0000  58.6934
     28    1 Ni   28      2.629298      4.382298     12.629500  18.0000  58.6934
     29    1 Ni   28      4.382298      2.629298     12.629500  18.0000  58.6934
     30    1 Ni   28      4.382298      6.135298     12.629500  18.0000  58.6934
     31    1 Ni   28      6.135298      0.876298     12.629500  18.0000  58.6934
     32    1 Ni   28      6.135298      4.382298     12.629500  18.0000  58.6934



 SCF PARAMETERS         Density guess:                                    ATOMIC
                        --------------------------------------------------------
                        max_scf:                                             500
                        max_scf_history:                                       0
                        max_diis:                                              4
                        --------------------------------------------------------
                        eps_scf:                                        1.00E-04
                        eps_scf_history:                                0.00E+00
                        eps_diis:                                       1.00E-01
                        eps_eigval:                                     1.00E-05
                        --------------------------------------------------------
                        level_shift [a.u.]:                             0.000000
                        added MOs                                       536  551
                        --------------------------------------------------------
                        Mixing method:                            BROYDEN_MIXING
                                                charge density mixing in g-space
                        --------------------------------------------------------
                        Smear method:                                FERMI_DIRAC
                        Electronic temperature [K]:                       2000.0
                        Electronic temperature [a.u.]:                  6.33E-03
                        Accuracy threshold:                             1.00E-10
                        --------------------------------------------------------
                        No outer SCF

 PW_GRID| Information for grid number                                          1
 PW_GRID| Grid distributed over                                   128 processors
 PW_GRID| Real space group dimensions                                     8   16
 PW_GRID| the grid is blocked:                                               YES
 PW_GRID| Cutoff [a.u.]                                                    300.0
 PW_GRID| spherical cutoff:                                                   NO
 PW_GRID|   Bounds   1            -54      53                Points:         108
 PW_GRID|   Bounds   2            -54      53                Points:         108
 PW_GRID|   Bounds   3           -150     149                Points:         300
 PW_GRID| Volume element (a.u.^3)  0.1896E-02     Volume (a.u.^3)      6635.2971
 PW_GRID| Grid span                                                    FULLSPACE
 PW_GRID|   Distribution                         Average         Max         Min
 PW_GRID|   G-Vectors                            27337.5       28728       25272
 PW_GRID|   G-Rays                                 253.1         266         234
 PW_GRID|   Real Space Points                    27337.5       28728       25272

 PW_GRID| Information for grid number                                          2
 PW_GRID| Number of the reference grid                                         1
 PW_GRID| Grid distributed over                                   128 processors
 PW_GRID| Real space group dimensions                                     8   16
 PW_GRID| the grid is blocked:                                                NO
 PW_GRID| Cutoff [a.u.]                                                    100.0
 PW_GRID| spherical cutoff:                                                   NO
 PW_GRID|   Bounds   1            -30      29                Points:          60
 PW_GRID|   Bounds   2            -30      29                Points:          60
 PW_GRID|   Bounds   3            -90      89                Points:         180
 PW_GRID| Volume element (a.u.^3)  0.1024E-01     Volume (a.u.^3)      6635.2971
 PW_GRID| Grid span                                                    FULLSPACE
 PW_GRID|   Distribution                         Average         Max         Min
 PW_GRID|   G-Vectors                             5062.5       15960           0
 PW_GRID|   G-Rays                                  84.4         266           0
 PW_GRID|   Real Space Points                     5062.5        5760        3780

 PW_GRID| Information for grid number                                          3
 PW_GRID| Number of the reference grid                                         1
 PW_GRID| Grid distributed over                                   128 processors
 PW_GRID| Real space group dimensions                                     8   16
 PW_GRID| the grid is blocked:                                                NO
 PW_GRID| Cutoff [a.u.]                                                     33.3
 PW_GRID| spherical cutoff:                                                   NO
 PW_GRID|   Bounds   1            -18      17                Points:          36
 PW_GRID|   Bounds   2            -18      17                Points:          36
 PW_GRID|   Bounds   3            -50      49                Points:         100
 PW_GRID| Volume element (a.u.^3)  0.5120E-01     Volume (a.u.^3)      6635.2971
 PW_GRID| Grid span                                                    FULLSPACE
 PW_GRID|   Distribution                         Average         Max         Min
 PW_GRID|   G-Vectors                             1012.5        9576           0
 PW_GRID|   G-Rays                                  28.1         266           0
 PW_GRID|   Real Space Points                     1012.5        1500         800

 PW_GRID| Information for grid number                                          4
 PW_GRID| Number of the reference grid                                         1
 PW_GRID| Grid distributed over                                   128 processors
 PW_GRID| Real space group dimensions                                     8   16
 PW_GRID| the grid is blocked:                                                NO
 PW_GRID| Cutoff [a.u.]                                                     11.1
 PW_GRID| spherical cutoff:                                                   NO
 PW_GRID|   Bounds   1            -10       9                Points:          20
 PW_GRID|   Bounds   2            -10       9                Points:          20
 PW_GRID|   Bounds   3            -30      29                Points:          60
 PW_GRID| Volume element (a.u.^3)  0.2765         Volume (a.u.^3)      6635.2971
 PW_GRID| Grid span                                                    FULLSPACE
 PW_GRID|   Distribution                         Average         Max         Min
 PW_GRID|   G-Vectors                              187.5        3800           0
 PW_GRID|   G-Rays                                   9.4         190           0
 PW_GRID|   Real Space Points                      187.5         360         120

 PW_GRID| Information for grid number                                          5
 PW_GRID| Number of the reference grid                                         1
 PW_GRID| Grid distributed over                                   128 processors
 PW_GRID| Real space group dimensions                                     8   16
 PW_GRID| the grid is blocked:                                                NO
 PW_GRID| Cutoff [a.u.]                                                      3.7
 PW_GRID| spherical cutoff:                                                   NO
 PW_GRID|   Bounds   1             -6       5                Points:          12
 PW_GRID|   Bounds   2             -6       5                Points:          12
 PW_GRID|   Bounds   3            -18      17                Points:          36
 PW_GRID| Volume element (a.u.^3)   1.280         Volume (a.u.^3)      6635.2971
 PW_GRID| Grid span                                                    FULLSPACE
 PW_GRID|   Distribution                         Average         Max         Min
 PW_GRID|   G-Vectors                               40.5        1296           0
 PW_GRID|   G-Rays                                   3.4         108           0
 PW_GRID|   Real Space Points                       40.5          72           0

 POISSON| Solver                                                        PERIODIC
 POISSON| Periodicity                                                        XYZ

 RS_GRID| Information for grid number                                          1
 RS_GRID|   Bounds   1            -54      53                Points:         108
 RS_GRID|   Bounds   2            -54      53                Points:         108
 RS_GRID|   Bounds   3           -150     149                Points:         300
 RS_GRID| Real space distribution over                                  8 groups
 RS_GRID| Real space distribution along direction                              2
 RS_GRID| Border size                                                         28
 RS_GRID| Real space distribution over                                 16 groups
 RS_GRID| Real space distribution along direction                              3
 RS_GRID| Border size                                                         28
 RS_GRID|   Distribution                         Average         Max         Min
 RS_GRID|   Planes                                  69.5          70          69
 RS_GRID|   Distribution                         Average         Max         Min
 RS_GRID|   Planes                                  74.8          75          74

 RS_GRID| Information for grid number                                          2
 RS_GRID|   Bounds   1            -30      29                Points:          60
 RS_GRID|   Bounds   2            -30      29                Points:          60
 RS_GRID|   Bounds   3            -90      89                Points:         180
 RS_GRID| Real space fully replicated
 RS_GRID| Group size                                                           1

 RS_GRID| Information for grid number                                          3
 RS_GRID|   Bounds   1            -18      17                Points:          36
 RS_GRID|   Bounds   2            -18      17                Points:          36
 RS_GRID|   Bounds   3            -50      49                Points:         100
 RS_GRID| Real space fully replicated
 RS_GRID| Group size                                                           1

 RS_GRID| Information for grid number                                          4
 RS_GRID|   Bounds   1            -10       9                Points:          20
 RS_GRID|   Bounds   2            -10       9                Points:          20
 RS_GRID|   Bounds   3            -30      29                Points:          60
 RS_GRID| Real space fully replicated
 RS_GRID| Group size                                                           1

 RS_GRID| Information for grid number                                          5
 RS_GRID|   Bounds   1             -6       5                Points:          12
 RS_GRID|   Bounds   2             -6       5                Points:          12
 RS_GRID|   Bounds   3            -18      17                Points:          36
 RS_GRID| Real space fully replicated
 RS_GRID| Group size                                                           1

 Spin 1

 Number of electrons:                                                        295.520
 Number of occupied orbitals:                                                296
 Number of molecular orbitals:                                               832

 Spin 2

 Number of electrons:                                                        280.480
 Number of occupied orbitals:                                                281
 Number of molecular orbitals:                                               832

 Number of orbital functions:                                                832
 Number of independent orbital functions:                                    832

 Extrapolation method: initial_guess

 Atomic guess: The first density matrix is obtained in terms of atomic orbitals
               and electronic configurations assigned to each atomic kind

 Guess for atomic kind: Ni_i

 Electronic structure
    Total number of core electrons                                         10.00
    Total number of valence electrons                                      18.00
    Total number of electrons                                              28.00
    Multiplicity                                                         doublet
    Alpha Electrons
    S   [  1.00  1.00] 1.00  1.00
    P   [  3.00] 3.00
    D      4.35
    Beta Electrons
    S   [  1.00  1.00] 1.00  1.00
    P   [  3.00] 3.00
    D      3.65


 *******************************************************************************
                  Iteration          Convergence                     Energy [au]
 *******************************************************************************
                          1         1.51729                    -167.067424631347
                          2         15.3902                    -156.642654318634
                          3         2.33433                    -168.319355313541
                          4        0.206730                    -168.609905008081
                          5        0.814175E-01                -168.612873080494
                          6        0.173318E-01                -168.613470181066
                          7        0.290432E-02                -168.613543571401
                          8        0.311825E-02                -168.613543401474
                          9        0.179670E-03                -168.613544404477
                         10        0.169386E-02                -168.613544207811
                         11        0.473341E-03                -168.613544360253
                         12        0.165417E-03                -168.613544400419
                         13        0.162622E-03                -168.613544401489
                         14        0.158325E-03                -168.613544403900
                         15        0.177007E-03                -168.613544402509
                         16        0.138916E-03                -168.613544404900
                         17        0.934549E-04                -168.613544406149
                         18        0.119916E-03                -168.613544405789
                         19        0.131607E-03                -168.613544405591
                         20        0.169309E-03                -168.613544404773
                         21        0.551337E-04                -168.613544406656
                         22        0.382664E-04                -168.613544406759
                         23        0.378942E-04                -168.613544406765
                         24        0.381089E-04                -168.613544406765
                         25        0.390835E-04                -168.613544406759
                         26        0.308614E-04                -168.613544406841
                         27        0.205044E-04                -168.613544406892
                         28        0.200942E-04                -168.613544406893
                         29        0.199375E-04                -168.613544406893
                         30        0.200198E-04                -168.613544406894
                         31        0.161325E-04                -168.613544406903
                         32        0.330614E-05                -168.613544406925
                         33        0.238713E-05                -168.613544406926
                         34        0.265439E-05                -168.613544406926
                         35        0.277073E-05                -168.613544406926
                         36        0.335175E-05                -168.613544406926
                         37        0.148809E-05                -168.613544406927
                         38        0.133447E-05                -168.613544406927
                         39        0.918735E-06                -168.613544406927

 Energy components [Hartree]           Total Energy ::         -168.613544406927
                                        Band Energy ::          -26.569761966525
                                     Kinetic Energy ::           97.306723392622
                                   Potential Energy ::         -265.920267799548
                                      Virial (-V/T) ::            2.732804666812
                                        Core Energy ::         -299.567979157577
                                          XC Energy ::          -16.227189041387
                                     Coulomb Energy ::          147.181623792037
                       Total Pseudopotential Energy ::         -396.961043505191
                       Local Pseudopotential Energy ::         -362.648291121960
                    Nonlocal Pseudopotential Energy ::          -34.312752383230
                                        Confinement ::            0.863409549921

 Orbital energies  State     Spin  L     Occupation   Energy[a.u.]    Energy[eV]

                       1    alpha  0          1.000      -4.172666   -113.544030
                       2    alpha  0          1.000      -0.181431     -4.936983
                       1     beta  0          1.000      -4.140640   -112.672541
                       2     beta  0          1.000      -0.176372     -4.799339

                       1    alpha  1          3.000      -2.578739    -70.171064
                       1     beta  1          3.000      -2.547579    -69.323162

                       1    alpha  2          4.350      -0.327039     -8.899191
                       1     beta  2          3.650      -0.300569     -8.178887


 Total Electron Density at R=0:                                         0.030422

 Guess for atomic kind: Ni_b

 Electronic structure
    Total number of core electrons                                         10.00
    Total number of valence electrons                                      18.00
    Total number of electrons                                              28.00
    Multiplicity                                                         singlet
    Alpha Electrons
    S   [  1.00  1.00] 1.00  1.00
    P   [  3.00] 3.00
    D      4.12
    Beta Electrons
    S   [  1.00  1.00] 1.00  1.00
    P   [  3.00] 3.00
    D      3.88


 *******************************************************************************
                  Iteration          Convergence                     Energy [au]
 *******************************************************************************
                          1         1.51630                    -167.063079464003
                          2         14.4472                    -156.602597144791
                          3         2.15208                    -168.315662032194
                          4        0.165540                    -168.606340553184
                          5        0.563366E-01                -168.609090764717
                          6        0.704329E-02                -168.609447772107
                          7        0.414580E-02                -168.609454504196
                          8        0.533162E-02                -168.609453994580
                          9        0.101087E-02                -168.609456197329
                         10        0.883587E-03                -168.609456323308
                         11        0.859549E-03                -168.609456299704
                         12        0.135454E-02                -168.609456270916
                         13        0.848521E-03                -168.609456358506
                         14        0.382314E-03                -168.609456407680
                         15        0.368342E-03                -168.609456419056
                         16        0.434752E-03                -168.609456424099
                         17        0.522896E-03                -168.609456418637
                         18        0.545027E-03                -168.609456416725
                         19        0.381922E-03                -168.609456427661
                         20        0.165207E-03                -168.609456436740
                         21        0.194727E-03                -168.609456438751
                         22        0.192171E-03                -168.609456438862
                         23        0.195828E-03                -168.609456438762
                         24        0.203765E-03                -168.609456438510
                         25        0.188520E-03                -168.609456438980
                         26        0.135966E-03                -168.609456440817
                         27        0.863213E-04                -168.609456441871
                         28        0.861233E-04                -168.609456441874
                         29        0.862316E-04                -168.609456441872
                         30        0.869016E-04                -168.609456441864
                         31        0.881148E-04                -168.609456441847
                         32        0.563842E-04                -168.609456442220
                         33        0.348404E-04                -168.609456442428
                         34        0.348533E-04                -168.609456442427
                         35        0.348629E-04                -168.609456442427
                         36        0.348445E-04                -168.609456442428
                         37        0.343463E-04                -168.609456442430
                         38        0.242559E-04                -168.609456442493
                         39        0.154218E-04                -168.609456442526
                         40        0.154156E-04                -168.609456442526
                         41        0.154120E-04                -168.609456442526
                         42        0.918515E-05                -168.609456442540
                         43        0.365819E-05                -168.609456442546
                         44        0.182190E-05                -168.609456442547
                         45        0.190136E-05                -168.609456442547
                         46        0.523275E-06                -168.609456442547

 Energy components [Hartree]           Total Energy ::         -168.609456442547
                                        Band Energy ::          -26.567804855402
                                     Kinetic Energy ::           97.301203141772
                                   Potential Energy ::         -265.910659584319
                                      Virial (-V/T) ::            2.732860961615
                                        Core Energy ::         -299.564754939018
                                          XC Energy ::          -16.222511450827
                                     Coulomb Energy ::          147.177809947298
                       Total Pseudopotential Energy ::         -396.952298419253
                       Local Pseudopotential Energy ::         -362.642439886802
                    Nonlocal Pseudopotential Energy ::          -34.309858532451
                                        Confinement ::            0.863403384630

[...]
   129 Broy./Diag. 0.80E-01    1.5     0.11107305     -5415.3299363506  2.01E+00
   130 Broy./Diag. 0.80E-01    1.5     0.09581906     -5431.3274553163 -1.60E+01
   131 Broy./Diag. 0.80E-01    1.5     0.07833034     -5417.2995510778  1.40E+01
   132 Broy./Diag. 0.80E-01    1.5     0.02920058     -5418.1159014220 -8.16E-01
   133 Broy./Diag. 0.80E-01    1.5     0.02320572     -5417.2172846945  8.99E-01
   134 Broy./Diag. 0.80E-01    1.5     0.08650654     -5417.4976962102 -2.80E-01
   135 Broy./Diag. 0.80E-01    1.5     0.06674706     -5422.3459182056 -4.85E+00
   136 Broy./Diag. 0.80E-01    1.5     0.10048460     -5418.8294308943  3.52E+00
   137 Broy./Diag. 0.80E-01    1.5     0.04669364     -5417.7168330162  1.11E+00
   138 Broy./Diag. 0.80E-01    1.5     0.01568306     -5420.0870255731 -2.37E+00
   139 Broy./Diag. 0.80E-01    1.5     0.05630801     -5421.2465114563 -1.16E+00
   140 Broy./Diag. 0.80E-01    1.5     0.14616451     -5413.9407982932  7.31E+00
   141 Broy./Diag. 0.80E-01    1.5     0.15374397     -5417.8519140157 -3.91E+00
   142 Broy./Diag. 0.80E-01    1.5     0.06312567     -5418.3732611351 -5.21E-01
   143 Broy./Diag. 0.80E-01    1.5     0.15945782     -5415.6614760946  2.71E+00
   144 Broy./Diag. 0.80E-01    1.5     0.14831022     -5426.5206267405 -1.09E+01
   145 Broy./Diag. 0.80E-01    1.5     0.03063044     -5414.2935458217  1.22E+01
   146 Broy./Diag. 0.80E-01    1.5     0.09609800     -5415.9653953893 -1.67E+00
   147 Broy./Diag. 0.80E-01    1.5     0.20039461     -5410.0869927031  5.88E+00
   148 Broy./Diag. 0.80E-01    1.5     0.07523189     -5419.1027861264 -9.02E+00
   149 Broy./Diag. 0.80E-01    1.5     0.09164348     -5418.2321151368  8.71E-01
   150 Broy./Diag. 0.80E-01    1.5     0.07721348     -5431.8270394952 -1.36E+01
   151 Broy./Diag. 0.80E-01    1.5     0.08501063     -5424.5050973820  7.32E+00
   152 Broy./Diag. 0.80E-01    1.5     0.04698714     -5413.0029679544  1.15E+01
   153 Broy./Diag. 0.80E-01    1.5     0.02528873     -5414.2652596584 -1.26E+00
   154 Broy./Diag. 0.80E-01    1.5     0.01752681     -5416.4867684402 -2.22E+00
   155 Broy./Diag. 0.80E-01    1.5     0.07603721     -5417.7382160844 -1.25E+00
   156 Broy./Diag. 0.80E-01    1.5     0.16992295     -5414.3210295911  3.42E+00
   157 Broy./Diag. 0.80E-01    1.5     0.15549975     -5431.5813116952 -1.73E+01
   158 Broy./Diag. 0.80E-01    1.5     0.06262370     -5410.9464321060  2.06E+01
   159 Broy./Diag. 0.80E-01    1.5     0.18403152     -5411.4052900948 -4.59E-01
   160 Broy./Diag. 0.80E-01    1.5     0.05487824     -5415.8376077460 -4.43E+00
   161 Broy./Diag. 0.80E-01    1.5     0.07069087     -5418.9730143666 -3.14E+00
   162 Broy./Diag. 0.80E-01    1.5     0.13684771     -5412.0322434298  6.94E+00
   163 Broy./Diag. 0.80E-01    1.5     0.12268740     -5413.2653646795 -1.23E+00
   164 Broy./Diag. 0.80E-01    1.5     0.06894758     -5417.7945454247 -4.53E+00
   165 Broy./Diag. 0.80E-01    1.5     0.07734603     -5417.1651185728  6.29E-01
   166 Broy./Diag. 0.80E-01    1.5     0.21276288     -5417.9183403540 -7.53E-01
   167 Broy./Diag. 0.80E-01    1.5     0.10786174     -5414.2607008550  3.66E+00
   168 Broy./Diag. 0.80E-01    1.5     0.02386716     -5418.6572613733 -4.40E+00
   169 Broy./Diag. 0.80E-01    1.5     0.15579119     -5418.5017564608  1.56E-01
   170 Broy./Diag. 0.80E-01    1.5     0.22171857     -5416.9324961293  1.57E+00
   171 Broy./Diag. 0.80E-01    1.5     0.18505050     -5409.1586490115  7.77E+00
   172 Broy./Diag. 0.80E-01    1.5     0.02106134     -5421.7568244335 -1.26E+01
   173 Broy./Diag. 0.80E-01    1.5     0.19108665     -5421.4257395787  3.31E-01
   174 Broy./Diag. 0.80E-01    1.5     0.46457117     -5418.1658806660  3.26E+00
   175 Broy./Diag. 0.80E-01    1.5     0.15305930     -5415.3908585120  2.78E+00
   176 Broy./Diag. 0.80E-01    1.5     0.15534518     -5407.9932934654  7.40E+00
   177 Broy./Diag. 0.80E-01    1.5     0.17718600     -5420.1025250611 -1.21E+01
   178 Broy./Diag. 0.80E-01    1.5     0.24573488     -5411.5543049460  8.55E+00
   179 Broy./Diag. 0.80E-01    1.5     0.12943648     -5411.6912343217 -1.37E-01
   180 Broy./Diag. 0.80E-01    1.5     0.14033675     -5411.8452521385 -1.54E-01
   181 Broy./Diag. 0.80E-01    1.5     0.05193505     -5432.0847778083 -2.02E+01
   182 Broy./Diag. 0.80E-01    1.5     0.13159556     -5431.1430636053  9.42E-01
   183 Broy./Diag. 0.80E-01    1.5     0.04532111     -5415.0681605662  1.61E+01
   184 Broy./Diag. 0.80E-01    1.5     0.23042076     -5411.2079390368  3.86E+00
   185 Broy./Diag. 0.80E-01    1.5     0.02705321     -5415.8464964878 -4.64E+00
   186 Broy./Diag. 0.80E-01    1.5     0.08882737     -5414.6867402431  1.16E+00
   187 Broy./Diag. 0.80E-01    1.5     0.07343259     -5405.4425476890  9.24E+00
   188 Broy./Diag. 0.80E-01    1.5     0.08204400     -5412.3408153732 -6.90E+00
   189 Broy./Diag. 0.80E-01    1.5     0.05403976     -5423.2405200686 -1.09E+01
   190 Broy./Diag. 0.80E-01    1.5     0.14060762     -5419.2568150760  3.98E+00
   191 Broy./Diag. 0.80E-01    1.5     0.04281394     -5426.9620590252 -7.71E+00
   192 Broy./Diag. 0.80E-01    1.5     0.10990109     -5427.0151075778 -5.30E-02
   193 Broy./Diag. 0.80E-01    1.5     0.09600102     -5415.8935995503  1.11E+01
   194 Broy./Diag. 0.80E-01    1.5     0.07483257     -5424.0744204706 -8.18E+00
   195 Broy./Diag. 0.80E-01    1.5     0.07659874     -5420.9470764550  3.13E+00
   196 Broy./Diag. 0.80E-01    1.5     0.02819024     -5425.3385149123 -4.39E+00
   197 Broy./Diag. 0.80E-01    1.5     0.08418193     -5424.4198807081  9.19E-01
   198 Broy./Diag. 0.80E-01    1.5     0.06046642     -5415.9509479489  8.47E+00
   199 Broy./Diag. 0.80E-01    1.5     0.03257738     -5418.0853743715 -2.13E+00
   200 Broy./Diag. 0.80E-01    1.5     0.02942649     -5422.7394817630 -4.65E+00
   201 Broy./Diag. 0.80E-01    1.5     0.04151283     -5431.1813623278 -8.44E+00
   202 Broy./Diag. 0.80E-01    1.5     0.07450105     -5423.6331336082  7.55E+00
   203 Broy./Diag. 0.80E-01    1.5     0.04119679     -5413.1266668032  1.05E+01
   204 Broy./Diag. 0.80E-01    1.5     0.07294674     -5410.0330252934  3.09E+00
   205 Broy./Diag. 0.80E-01    1.5     0.03343237     -5416.6394732322 -6.61E+00
   206 Broy./Diag. 0.80E-01    1.5     0.04532971     -5411.3663909803  5.27E+00
   207 Broy./Diag. 0.80E-01    1.5     0.02609312     -5409.9632231601  1.40E+00
   208 Broy./Diag. 0.80E-01    1.5     0.04489671     -5415.3642050431 -5.40E+00
   209 Broy./Diag. 0.80E-01    1.5     0.05897992     -5417.2090239769 -1.84E+00
   210 Broy./Diag. 0.80E-01    1.5     0.04467372     -5422.5742693765 -5.37E+00
   211 Broy./Diag. 0.80E-01    1.5     0.07140500     -5419.0496635369  3.52E+00
   212 Broy./Diag. 0.80E-01    1.5     0.01722309     -5421.8145469976 -2.76E+00
   213 Broy./Diag. 0.80E-01    1.5     0.09560199     -5421.6704660303  1.44E-01
   214 Broy./Diag. 0.80E-01    1.5     0.01513997     -5421.4617441403  2.09E-01
   215 Broy./Diag. 0.80E-01    1.5     0.01024762     -5420.2681634458  1.19E+00
   216 Broy./Diag. 0.80E-01    1.5     0.00951096     -5419.7986962173  4.69E-01
   217 Broy./Diag. 0.80E-01    1.5     0.02581658     -5418.8854834997  9.13E-01
   218 Broy./Diag. 0.80E-01    1.5     0.02351682     -5419.3301273808 -4.45E-01
   219 Broy./Diag. 0.80E-01    1.5     0.03311973     -5418.9408073193  3.89E-01
   220 Broy./Diag. 0.80E-01    1.5     0.01385716     -5421.8498135058 -2.91E+00
   221 Broy./Diag. 0.80E-01    1.5     0.03705891     -5420.5613181645  1.29E+00
   222 Broy./Diag. 0.80E-01    1.5     0.00767862     -5418.1270875913  2.43E+00
   223 Broy./Diag. 0.80E-01    1.5     0.01203677     -5418.4599236160 -3.33E-01
   224 Broy./Diag. 0.80E-01    1.5     0.02074319     -5417.7380311612  7.22E-01
   225 Broy./Diag. 0.80E-01    1.5     0.03768422     -5418.8417588796 -1.10E+00
   226 Broy./Diag. 0.80E-01    1.5     0.01335924     -5419.7540602715 -9.12E-01
   227 Broy./Diag. 0.80E-01    1.5     0.04786577     -5421.5876152888 -1.83E+00
   228 Broy./Diag. 0.80E-01    1.5     0.04800066     -5419.9942864839  1.59E+00
   229 Broy./Diag. 0.80E-01    1.5     0.05310573     -5418.6693032418  1.32E+00
   230 Broy./Diag. 0.80E-01    1.5     0.00944959     -5419.6811253291 -1.01E+00
   231 Broy./Diag. 0.80E-01    1.5     0.01208184     -5420.3921299001 -7.11E-01
   232 Broy./Diag. 0.80E-01    1.5     0.01643403     -5419.1348124028  1.26E+00
   233 Broy./Diag. 0.80E-01    1.5     0.01860016     -5419.4848695465 -3.50E-01
   234 Broy./Diag. 0.80E-01    1.5     0.05740340     -5418.8374920996  6.47E-01
   235 Broy./Diag. 0.80E-01    1.5     0.05687052     -5424.7349754210 -5.90E+00
   236 Broy./Diag. 0.80E-01    1.5     0.01484836     -5418.7622760230  5.97E+00
   237 Broy./Diag. 0.80E-01    1.5     0.03610343     -5419.7326634877 -9.70E-01
   238 Broy./Diag. 0.80E-01    1.5     0.01025621     -5417.8853646530  1.85E+00
   239 Broy./Diag. 0.80E-01    1.5     0.04092664     -5417.1846273650  7.01E-01
   240 Broy./Diag. 0.80E-01    1.5     0.03940621     -5415.0369575024  2.15E+00
   241 Broy./Diag. 0.80E-01    1.5     0.11902126     -5413.4271910458  1.61E+00
   242 Broy./Diag. 0.80E-01    1.5     0.09497661     -5418.3693565996 -4.94E+00
   243 Broy./Diag. 0.80E-01    1.5     0.21626090     -5415.1321367641  3.24E+00
   244 Broy./Diag. 0.80E-01    1.5     0.06388081     -5415.8082422423 -6.76E-01
   245 Broy./Diag. 0.80E-01    1.5     0.05333275     -5415.1787221704  6.30E-01
   246 Broy./Diag. 0.80E-01    1.5     0.07725779     -5414.8029885217  3.76E-01
   247 Broy./Diag. 0.80E-01    1.5     0.02047597     -5414.0632201817  7.40E-01
   248 Broy./Diag. 0.80E-01    1.5     0.05466471     -5414.2603114927 -1.97E-01
   249 Broy./Diag. 0.80E-01    1.5     0.07277455     -5415.2515433085 -9.91E-01
   250 Broy./Diag. 0.80E-01    1.5     0.00904127     -5415.6259699576 -3.74E-01
   251 Broy./Diag. 0.80E-01    1.5     0.01823119     -5416.0996447276 -4.74E-01
   252 Broy./Diag. 0.80E-01    1.5     0.01157473     -5416.8481491032 -7.49E-01
   253 Broy./Diag. 0.80E-01    1.5     0.01640121     -5416.9945401161 -1.46E-01
   254 Broy./Diag. 0.80E-01    1.5     0.02921400     -5417.9108148201 -9.16E-01
   255 Broy./Diag. 0.80E-01    1.5     0.11895046     -5416.6860726268  1.22E+00
   256 Broy./Diag. 0.80E-01    1.5     0.04006904     -5420.3811323688 -3.70E+00
   257 Broy./Diag. 0.80E-01    1.5     0.05679869     -5419.5115981054  8.70E-01
   258 Broy./Diag. 0.80E-01    1.5     0.01922774     -5419.0726947843  4.39E-01
   259 Broy./Diag. 0.80E-01    1.5     0.03863169     -5419.5270165707 -4.54E-01
   260 Broy./Diag. 0.80E-01    1.5     0.02052870     -5419.4418887187  8.51E-02
   261 Broy./Diag. 0.80E-01    1.5     0.06020086     -5419.2147945023  2.27E-01
   262 Broy./Diag. 0.80E-01    1.5     0.05502121     -5420.2282880399 -1.01E+00
   263 Broy./Diag. 0.80E-01    1.5     0.03391780     -5420.6731605111 -4.45E-01
   264 Broy./Diag. 0.80E-01    1.5     0.03512811     -5419.8337497636  8.39E-01
   265 Broy./Diag. 0.80E-01    1.5     0.09116409     -5421.0279831683 -1.19E+00
   266 Broy./Diag. 0.80E-01    1.5     0.13612861     -5418.6718633503  2.36E+00
   267 Broy./Diag. 0.80E-01    1.5     0.03432041     -5419.1141221397 -4.42E-01
   268 Broy./Diag. 0.80E-01    1.5     0.03684927     -5418.3511257174  7.63E-01
   269 Broy./Diag. 0.80E-01    1.5     0.04416318     -5417.3051636786  1.05E+00
   270 Broy./Diag. 0.80E-01    1.5     0.03664211     -5422.2380714638 -4.93E+00
   271 Broy./Diag. 0.80E-01    1.5     0.14710455     -5419.0076263036  3.23E+00
   272 Broy./Diag. 0.80E-01    1.5     0.07190398     -5425.1134560934 -6.11E+00
   273 Broy./Diag. 0.80E-01    1.5     0.02863050     -5420.5849138428  4.53E+00
   274 Broy./Diag. 0.80E-01    1.5     0.12588865     -5423.2744513500 -2.69E+00
   275 Broy./Diag. 0.80E-01    1.5     0.09950417     -5420.1995679334  3.07E+00
   276 Broy./Diag. 0.80E-01    1.5     0.10975701     -5422.8795696209 -2.68E+00
   277 Broy./Diag. 0.80E-01    1.5     0.08864303     -5411.7854172423  1.11E+01
   278 Broy./Diag. 0.80E-01    1.5     0.14835597     -5410.6885817114  1.10E+00
   279 Broy./Diag. 0.80E-01    1.5     0.07939005     -5421.8644406317 -1.12E+01
   280 Broy./Diag. 0.80E-01    1.5     0.15877436     -5415.3124127554  6.55E+00
   281 Broy./Diag. 0.80E-01    1.5     0.13682529     -5421.6153580833 -6.30E+00
   282 Broy./Diag. 0.80E-01    1.5     0.11150859     -5420.7486075128  8.67E-01
   283 Broy./Diag. 0.80E-01    1.5     0.07327815     -5416.5968778233  4.15E+00
   284 Broy./Diag. 0.80E-01    1.5     0.10935147     -5423.0731855474 -6.48E+00
   285 Broy./Diag. 0.80E-01    1.5     0.14805355     -5413.5255189206  9.55E+00
   286 Broy./Diag. 0.80E-01    1.5     0.10181977     -5412.5163328338  1.01E+00
   287 Broy./Diag. 0.80E-01    1.5     0.13845841     -5421.6489315448 -9.13E+00
   288 Broy./Diag. 0.80E-01    1.5     0.09878405     -5419.4747881566  2.17E+00
   289 Broy./Diag. 0.80E-01    1.5     0.07477939     -5414.8180062586  4.66E+00
   290 Broy./Diag. 0.80E-01    1.5     0.45156406     -5414.7204647927  9.75E-02
   291 Broy./Diag. 0.80E-01    1.5     0.32044179     -5411.2370547535  3.48E+00
   292 Broy./Diag. 0.80E-01    1.5     0.04229601     -5416.9495846335 -5.71E+00
   293 Broy./Diag. 0.80E-01    1.5     0.05722753     -5420.2684268935 -3.32E+00
   294 Broy./Diag. 0.80E-01    1.5     0.15129913     -5415.8112046131  4.46E+00
   295 Broy./Diag. 0.80E-01    1.5     0.08456615     -5416.2022598768 -3.91E-01
   296 Broy./Diag. 0.80E-01    1.5     0.08071752     -5420.0980958048 -3.90E+00
   297 Broy./Diag. 0.80E-01    1.5     0.16446032     -5417.4071287459  2.69E+00
   298 Broy./Diag. 0.80E-01    1.5     0.10762821     -5415.3409902932  2.07E+00
   299 Broy./Diag. 0.80E-01    1.5     0.16368777     -5424.3717810939 -9.03E+00
   300 Broy./Diag. 0.80E-01    1.5     0.49093185     -5421.3215275023  3.05E+00
   301 Broy./Diag. 0.80E-01    1.5     0.23222022     -5409.9758119167  1.13E+01
   302 Broy./Diag. 0.80E-01    1.5     0.09770333     -5419.8316216626 -9.86E+00
   303 Broy./Diag. 0.80E-01    1.5     0.10730359     -5414.6207698956  5.21E+00
   304 Broy./Diag. 0.80E-01    1.5     0.15212048     -5417.1803034358 -2.56E+00
   305 Broy./Diag. 0.80E-01    1.5     0.13341348     -5407.9440061090  9.24E+00
   306 Broy./Diag. 0.80E-01    1.5     0.04905639     -5419.2428710997 -1.13E+01
   307 Broy./Diag. 0.80E-01    1.5     0.23669364     -5416.4284166429  2.81E+00
   308 Broy./Diag. 0.80E-01    1.5     0.23745147     -5418.2053874158 -1.78E+00
   309 Broy./Diag. 0.80E-01    1.5     0.08301637     -5421.3883701169 -3.18E+00
   310 Broy./Diag. 0.80E-01    1.5     0.36181040     -5418.1641088029  3.22E+00
   311 Broy./Diag. 0.80E-01    1.5     0.29968361     -5408.0344346165  1.01E+01
   312 Broy./Diag. 0.80E-01    1.5     0.20958440     -5432.8636137629 -2.48E+01
   313 Broy./Diag. 0.80E-01    1.5     0.12220401     -5424.3495883150  8.51E+00
   314 Broy./Diag. 0.80E-01    1.5     0.04809787     -5408.2497715355  1.61E+01
   315 Broy./Diag. 0.80E-01    1.5     0.09483409     -5415.4749537787 -7.23E+00
   316 Broy./Diag. 0.80E-01    1.5     0.34460435     -5421.5959345901 -6.12E+00
   317 Broy./Diag. 0.80E-01    1.5     0.33759690     -5421.5653772034  3.06E-02
   318 Broy./Diag. 0.80E-01    1.5     0.09442447     -5414.2017664082  7.36E+00
   319 Broy./Diag. 0.80E-01    1.5     0.04349432     -5410.2451566515  3.96E+00
   320 Broy./Diag. 0.80E-01    1.5     0.05410950     -5408.3444663198  1.90E+00
   321 Broy./Diag. 0.80E-01    1.5     0.04278586     -5408.1300912287  2.14E-01
   322 Broy./Diag. 0.80E-01    1.5     0.16882031     -5407.4993849484  6.31E-01
   323 Broy./Diag. 0.80E-01    1.5     0.10677532     -5411.0090682461 -3.51E+00
   324 Broy./Diag. 0.80E-01    1.5     0.30394747     -5413.3917441675 -2.38E+00
   325 Broy./Diag. 0.80E-01    1.5     0.26257135     -5424.1900814959 -1.08E+01
   326 Broy./Diag. 0.80E-01    1.5     0.08614871     -5423.3259280480  8.64E-01
   327 Broy./Diag. 0.80E-01    1.5     0.12183888     -5421.3894265796  1.94E+00
   328 Broy./Diag. 0.80E-01    1.5     0.04142385     -5406.2107411223  1.52E+01
   329 Broy./Diag. 0.80E-01    1.5     0.10775448     -5404.0335643591  2.18E+00
   330 Broy./Diag. 0.80E-01    1.5     0.12106136     -5403.6915994127  3.42E-01
   331 Broy./Diag. 0.80E-01    1.5     0.31810276     -5410.1458960201 -6.45E+00
   332 Broy./Diag. 0.80E-01    1.5     0.15446889     -5413.7649538236 -3.62E+00
   333 Broy./Diag. 0.80E-01    1.5     0.21560545     -5410.4649177677  3.30E+00
   334 Broy./Diag. 0.80E-01    1.5     0.17772604     -5406.6176590436  3.85E+00
   335 Broy./Diag. 0.80E-01    1.5     0.19484119     -5414.5686432598 -7.95E+00
   336 Broy./Diag. 0.80E-01    1.5     0.16463427     -5419.1808407482 -4.61E+00
   337 Broy./Diag. 0.80E-01    1.5     0.21307007     -5412.9041465492  6.28E+00
   338 Broy./Diag. 0.80E-01    1.5     0.30395438     -5420.1821227617 -7.28E+00
   339 Broy./Diag. 0.80E-01    1.5     0.09263871     -5402.2312420440  1.80E+01
   340 Broy./Diag. 0.80E-01    1.5     0.07376506     -5411.6994395802 -9.47E+00
   341 Broy./Diag. 0.80E-01    1.5     0.37777054     -5413.6721012808 -1.97E+00
   342 Broy./Diag. 0.80E-01    1.5     0.12513430     -5422.6760213453 -9.00E+00
   343 Broy./Diag. 0.80E-01    1.5     0.29942717     -5419.6894224213  2.99E+00
   344 Broy./Diag. 0.80E-01    1.5     0.35445525     -5418.3703597791  1.32E+00
   345 Broy./Diag. 0.80E-01    1.5     0.11580833     -5404.9984037469  1.34E+01
   346 Broy./Diag. 0.80E-01    1.5     0.49192343     -5406.1773866759 -1.18E+00
   347 Broy./Diag. 0.80E-01    1.5     0.12483323     -5413.1785110782 -7.00E+00
   348 Broy./Diag. 0.80E-01    1.5     0.32585438     -5416.1656751217 -2.99E+00
   349 Broy./Diag. 0.80E-01    1.5     0.11962799     -5426.4493041903 -1.03E+01
   350 Broy./Diag. 0.80E-01    1.5     0.09734758     -5424.6676412763  1.78E+00
   351 Broy./Diag. 0.80E-01    1.5     0.03446263     -5425.3802758693 -7.13E-01
   352 Broy./Diag. 0.80E-01    1.5     0.09970179     -5423.8264548358  1.55E+00
   353 Broy./Diag. 0.80E-01    1.5     0.13397313     -5413.6941998653  1.01E+01
   354 Broy./Diag. 0.80E-01    1.5     0.43290286     -5419.6386286094 -5.94E+00
   355 Broy./Diag. 0.80E-01    1.5     0.10532371     -5418.5544084960  1.08E+00
   356 Broy./Diag. 0.80E-01    1.5     0.55304854     -5417.2447898881  1.31E+00
   357 Broy./Diag. 0.80E-01    1.5     0.17821815     -5421.8276632506 -4.58E+00
   358 Broy./Diag. 0.80E-01    1.5     0.00688962     -5424.4953214709 -2.67E+00
   359 Broy./Diag. 0.80E-01    1.5     0.12003097     -5424.7249016191 -2.30E-01
   360 Broy./Diag. 0.80E-01    1.5     0.05631134     -5421.3857579123  3.34E+00
   361 Broy./Diag. 0.80E-01    1.5     0.10702063     -5423.5626679787 -2.18E+00
   362 Broy./Diag. 0.80E-01    1.5     0.19854512     -5422.6312830314  9.31E-01
   363 Broy./Diag. 0.80E-01    1.5     0.08368654     -5425.5109862042 -2.88E+00
   364 Broy./Diag. 0.80E-01    1.5     0.14043543     -5429.3204710556 -3.81E+00
   365 Broy./Diag. 0.80E-01    1.5     0.34609279     -5429.6391405455 -3.19E-01
   366 Broy./Diag. 0.80E-01    1.5     0.12265542     -5420.9939131803  8.65E+00
   367 Broy./Diag. 0.80E-01    1.5     0.14514150     -5422.0539397509 -1.06E+00
   368 Broy./Diag. 0.80E-01    1.5     0.10525129     -5421.2401738307  8.14E-01
   369 Broy./Diag. 0.80E-01    1.5     0.09577868     -5419.1724647609  2.07E+00
   370 Broy./Diag. 0.80E-01    1.5     0.12671815     -5415.3454509644  3.83E+00
   371 Broy./Diag. 0.80E-01    1.5     0.09643166     -5414.0306738508  1.31E+00
   372 Broy./Diag. 0.80E-01    1.5     0.06721676     -5415.1604295162 -1.13E+00
   373 Broy./Diag. 0.80E-01    1.5     0.13477512     -5419.0843000343 -3.92E+00
   374 Broy./Diag. 0.80E-01    1.5     0.10713979     -5415.9665435637  3.12E+00
