      60
 i =        1, E =     -7949.3103506849
 Pt        -0.0006095878        0.0002240336        0.0018863626
 Pt        -0.0004050148        0.0000822138        0.0010844585
 Pt         0.0006380841       -0.0000150263        0.0016680366
 Pt         0.0005021835       -0.0002042917        0.0019425489
 Pt         0.0002318006       -0.0002977473       -0.0000918168
 Pt         0.0005739930       -0.0005870015       -0.0006929251
 Pt         0.0008214734        0.0002827795       -0.0012081200
 Pt         0.0012279748        0.0005338356       -0.0012238238
 Pt        -0.0001300953        0.0007382154       -0.0001780340
 Pt        -0.0006074175        0.0006276734       -0.0001731971
 Pt        -0.0005965487       -0.0005585498       -0.0013149691
 Pt        -0.0013598072       -0.0003254376       -0.0013836649
 Ni        -0.0001269135       -0.0005997624        0.0003520451
 Ni        -0.0005028788       -0.0010848196        0.0003078038
 Ni         0.0000000000        0.0000000000        0.0000000000
 Ni         0.0000000000        0.0000000000        0.0000000000
 Pt         0.0000000000        0.0000000000        0.0000000000
 Pt         0.0000000000        0.0000000000        0.0000000000
 Ni         0.0000000000        0.0000000000        0.0000000000
 Ni         0.0000000000        0.0000000000        0.0000000000
 Pt         0.0000000000        0.0000000000        0.0000000000
 Pt         0.0000000000        0.0000000000        0.0000000000
 Pt         0.0000000000        0.0000000000        0.0000000000
 Pt         0.0000000000        0.0000000000        0.0000000000
 Pt         0.0000000000        0.0000000000        0.0000000000
 Pt         0.0000000000        0.0000000000        0.0000000000
 Ni         0.0000000000        0.0000000000        0.0000000000
 Pt         0.0000000000        0.0000000000        0.0000000000
 Pt         0.0000000000        0.0000000000        0.0000000000
 Pt         0.0000000000        0.0000000000        0.0000000000
 Ni         0.0000000000        0.0000000000        0.0000000000
 Pt         0.0000000000        0.0000000000        0.0000000000
 Ni         0.0000000000        0.0000000000        0.0000000000
 Pt         0.0000000000        0.0000000000        0.0000000000
 Pt         0.0000000000        0.0000000000        0.0000000000
 Pt         0.0000000000        0.0000000000        0.0000000000
 Pt         0.0000000000        0.0000000000        0.0000000000
 Pt         0.0000000000        0.0000000000        0.0000000000
 Pt         0.0000000000        0.0000000000        0.0000000000
 Pt         0.0000000000        0.0000000000        0.0000000000
 Ni         0.0000000000        0.0000000000        0.0000000000
 Pt         0.0000000000        0.0000000000        0.0000000000
 Ni         0.0000000000        0.0000000000        0.0000000000
 Pt         0.0000000000        0.0000000000        0.0000000000
 Ni         0.0000000000        0.0000000000        0.0000000000
 Ni         0.0000000000        0.0000000000        0.0000000000
 Ni         0.0000000000        0.0000000000        0.0000000000
 Ni         0.0000000000        0.0000000000        0.0000000000
 Pt         0.0000000000        0.0000000000        0.0000000000
 Pt         0.0000000000        0.0000000000        0.0000000000
 Pt         0.0003770564        0.0006596790        0.0001230241
 Pt         0.0000105313        0.0004209050        0.0001306623
 Pt        -0.0012598626        0.0000941132        0.0013589983
 Pt        -0.0010332746       -0.0000280115        0.0013566724
 Pt        -0.0008220695       -0.0007427011        0.0005232847
 Pt        -0.0005810888       -0.0005566937        0.0002071985
 Pt        -0.0007998994       -0.0002857682       -0.0016602506
 Pt        -0.0007178514       -0.0004310876       -0.0017865345
 Pt         0.0001233809        0.0001858641       -0.0009456554
 Pt         0.0001428656        0.0002172234       -0.0018248221
      60
 i =        2, E =     -7949.3106829763
 Pt        -0.0002523762       -0.0001758590        0.0000806345
 Pt        -0.0001297054       -0.0000451423       -0.0001340328
 Pt         0.0001900424        0.0000238431       -0.0001594881
 Pt         0.0004530335        0.0001897116       -0.0001188606
 Pt        -0.0000291467        0.0003433693       -0.0000437571
 Pt        -0.0001036577        0.0005021222        0.0000895495
 Pt         0.0000997882       -0.0001836707       -0.0000063087
 Pt        -0.0001121885       -0.0003357387        0.0002528629
 Pt         0.0000680814       -0.0002651823        0.0000482101
 Pt         0.0002176523       -0.0001384865        0.0000075954
 Pt        -0.0001303923        0.0002123087        0.0000086850
 Pt         0.0002531486        0.0002071196        0.0000062690
 Ni        -0.0003965886        0.0002341728       -0.0002152575
 Ni        -0.0001257032        0.0004763058       -0.0001809568
 Ni         0.0000000000        0.0000000000        0.0000000000
 Ni         0.0000000000        0.0000000000        0.0000000000
 Pt         0.0000000000        0.0000000000        0.0000000000
 Pt         0.0000000000        0.0000000000        0.0000000000
 Ni         0.0000000000        0.0000000000        0.0000000000
 Ni         0.0000000000        0.0000000000        0.0000000000
 Pt         0.0000000000        0.0000000000        0.0000000000
 Pt         0.0000000000        0.0000000000        0.0000000000
 Pt         0.0000000000        0.0000000000        0.0000000000
 Pt         0.0000000000        0.0000000000        0.0000000000
 Pt         0.0000000000        0.0000000000        0.0000000000
 Pt         0.0000000000        0.0000000000        0.0000000000
 Ni         0.0000000000        0.0000000000        0.0000000000
 Pt         0.0000000000        0.0000000000        0.0000000000
 Pt         0.0000000000        0.0000000000        0.0000000000
 Pt         0.0000000000        0.0000000000        0.0000000000
 Ni         0.0000000000        0.0000000000        0.0000000000
 Pt         0.0000000000        0.0000000000        0.0000000000
 Ni         0.0000000000        0.0000000000        0.0000000000
 Pt         0.0000000000        0.0000000000        0.0000000000
 Pt         0.0000000000        0.0000000000        0.0000000000
 Pt         0.0000000000        0.0000000000        0.0000000000
 Pt         0.0000000000        0.0000000000        0.0000000000
 Pt         0.0000000000        0.0000000000        0.0000000000
 Pt         0.0000000000        0.0000000000        0.0000000000
 Pt         0.0000000000        0.0000000000        0.0000000000
 Ni         0.0000000000        0.0000000000        0.0000000000
 Pt         0.0000000000        0.0000000000        0.0000000000
 Ni         0.0000000000        0.0000000000        0.0000000000
 Pt         0.0000000000        0.0000000000        0.0000000000
 Ni         0.0000000000        0.0000000000        0.0000000000
 Ni         0.0000000000        0.0000000000        0.0000000000
 Ni         0.0000000000        0.0000000000        0.0000000000
 Ni         0.0000000000        0.0000000000        0.0000000000
 Pt         0.0000000000        0.0000000000        0.0000000000
 Pt         0.0000000000        0.0000000000        0.0000000000
 Pt        -0.0005072343       -0.0001886750       -0.0000142881
 Pt        -0.0004254874       -0.0001882155       -0.0000450660
 Pt        -0.0002637293       -0.0001307525       -0.0001631206
 Pt        -0.0003850213       -0.0000956892        0.0001058624
 Pt        -0.0002247957        0.0003504574       -0.0001360432
 Pt        -0.0003173646        0.0002859467       -0.0000266641
 Pt        -0.0005472774        0.0000702139        0.0001172412
 Pt        -0.0006313688        0.0001204872        0.0001055897
 Pt        -0.0002695910       -0.0001925291        0.0001656090
 Pt        -0.0000845668       -0.0001654967       -0.0000179786
      60
 i =        3, E =     -7949.3107030610
 Pt         0.0000755141        0.0000767057       -0.0000901020
 Pt         0.0000288563        0.0000232891       -0.0000874619
 Pt         0.0000153685        0.0000221572       -0.0000810533
 Pt        -0.0000213613        0.0000070107       -0.0000316194
 Pt         0.0000473583       -0.0000204606        0.0000123752
 Pt         0.0000392706       -0.0000569386        0.0000352385
 Pt         0.0000291735        0.0000495293        0.0000475069
 Pt         0.0000209985        0.0001046721        0.0001558263
 Pt         0.0000620808        0.0000786512        0.0000130851
 Pt        -0.0000115587        0.0000800357        0.0000131176
 Pt         0.0000909406        0.0000065918        0.0000086486
 Pt        -0.0000218220       -0.0000302980        0.0000237582
 Ni        -0.0001151243       -0.0001362276       -0.0000194001
 Ni        -0.0000234963       -0.0000914746        0.0000028525
 Ni         0.0000000000        0.0000000000        0.0000000000
 Ni         0.0000000000        0.0000000000        0.0000000000
 Pt         0.0000000000        0.0000000000        0.0000000000
 Pt         0.0000000000        0.0000000000        0.0000000000
 Ni         0.0000000000        0.0000000000        0.0000000000
 Ni         0.0000000000        0.0000000000        0.0000000000
 Pt         0.0000000000        0.0000000000        0.0000000000
 Pt         0.0000000000        0.0000000000        0.0000000000
 Pt         0.0000000000        0.0000000000        0.0000000000
 Pt         0.0000000000        0.0000000000        0.0000000000
 Pt         0.0000000000        0.0000000000        0.0000000000
 Pt         0.0000000000        0.0000000000        0.0000000000
 Ni         0.0000000000        0.0000000000        0.0000000000
 Pt         0.0000000000        0.0000000000        0.0000000000
 Pt         0.0000000000        0.0000000000        0.0000000000
 Pt         0.0000000000        0.0000000000        0.0000000000
 Ni         0.0000000000        0.0000000000        0.0000000000
 Pt         0.0000000000        0.0000000000        0.0000000000
 Ni         0.0000000000        0.0000000000        0.0000000000
 Pt         0.0000000000        0.0000000000        0.0000000000
 Pt         0.0000000000        0.0000000000        0.0000000000
 Pt         0.0000000000        0.0000000000        0.0000000000
 Pt         0.0000000000        0.0000000000        0.0000000000
 Pt         0.0000000000        0.0000000000        0.0000000000
 Pt         0.0000000000        0.0000000000        0.0000000000
 Pt         0.0000000000        0.0000000000        0.0000000000
 Ni         0.0000000000        0.0000000000        0.0000000000
 Pt         0.0000000000        0.0000000000        0.0000000000
 Ni         0.0000000000        0.0000000000        0.0000000000
 Pt         0.0000000000        0.0000000000        0.0000000000
 Ni         0.0000000000        0.0000000000        0.0000000000
 Ni         0.0000000000        0.0000000000        0.0000000000
 Ni         0.0000000000        0.0000000000        0.0000000000
 Ni         0.0000000000        0.0000000000        0.0000000000
 Pt         0.0000000000        0.0000000000        0.0000000000
 Pt         0.0000000000        0.0000000000        0.0000000000
 Pt        -0.0002702231        0.0000370255       -0.0000595789
 Pt        -0.0003232435        0.0000349251       -0.0000729039
 Pt        -0.0003038497        0.0000141221       -0.0000978284
 Pt        -0.0003219346       -0.0000098666        0.0000077490
 Pt        -0.0001993263       -0.0000399857       -0.0000152898
 Pt        -0.0002115116       -0.0000229943        0.0000291530
 Pt        -0.0002512537       -0.0000255601        0.0000260841
 Pt        -0.0002625075       -0.0000547390        0.0000181091
 Pt        -0.0002143730        0.0000066962        0.0001379972
 Pt        -0.0002410349        0.0000177286        0.0001079692
      60
 i =        4, E =     -7949.3107132960
 Pt         0.0001305772        0.0000655792       -0.0000797039
 Pt         0.0001193260        0.0000449885        0.0000020434
 Pt        -0.0000701696        0.0000336027        0.0000054931
 Pt        -0.0001179957       -0.0000224550       -0.0000009267
 Pt         0.0000419748       -0.0000620544        0.0000060018
 Pt         0.0000626373       -0.0001076811       -0.0000073889
 Pt        -0.0000084359        0.0000845792        0.0000332465
 Pt         0.0000404981        0.0001215198       -0.0000096661
 Pt         0.0000077717        0.0001018071        0.0000029095
 Pt        -0.0000371429        0.0000504366        0.0000100703
 Pt         0.0000627771       -0.0000264213        0.0000245791
 Pt        -0.0000210451       -0.0000110887        0.0000381923
 Ni         0.0000032181       -0.0001089071        0.0000640547
 Ni         0.0000247195       -0.0001313281        0.0000461873
 Ni         0.0000000000        0.0000000000        0.0000000000
 Ni         0.0000000000        0.0000000000        0.0000000000
 Pt         0.0000000000        0.0000000000        0.0000000000
 Pt         0.0000000000        0.0000000000        0.0000000000
 Ni         0.0000000000        0.0000000000        0.0000000000
 Ni         0.0000000000        0.0000000000        0.0000000000
 Pt         0.0000000000        0.0000000000        0.0000000000
 Pt         0.0000000000        0.0000000000        0.0000000000
 Pt         0.0000000000        0.0000000000        0.0000000000
 Pt         0.0000000000        0.0000000000        0.0000000000
 Pt         0.0000000000        0.0000000000        0.0000000000
 Pt         0.0000000000        0.0000000000        0.0000000000
 Ni         0.0000000000        0.0000000000        0.0000000000
 Pt         0.0000000000        0.0000000000        0.0000000000
 Pt         0.0000000000        0.0000000000        0.0000000000
 Pt         0.0000000000        0.0000000000        0.0000000000
 Ni         0.0000000000        0.0000000000        0.0000000000
 Pt         0.0000000000        0.0000000000        0.0000000000
 Ni         0.0000000000        0.0000000000        0.0000000000
 Pt         0.0000000000        0.0000000000        0.0000000000
 Pt         0.0000000000        0.0000000000        0.0000000000
 Pt         0.0000000000        0.0000000000        0.0000000000
 Pt         0.0000000000        0.0000000000        0.0000000000
 Pt         0.0000000000        0.0000000000        0.0000000000
 Pt         0.0000000000        0.0000000000        0.0000000000
 Pt         0.0000000000        0.0000000000        0.0000000000
 Ni         0.0000000000        0.0000000000        0.0000000000
 Pt         0.0000000000        0.0000000000        0.0000000000
 Ni         0.0000000000        0.0000000000        0.0000000000
 Pt         0.0000000000        0.0000000000        0.0000000000
 Ni         0.0000000000        0.0000000000        0.0000000000
 Ni         0.0000000000        0.0000000000        0.0000000000
 Ni         0.0000000000        0.0000000000        0.0000000000
 Ni         0.0000000000        0.0000000000        0.0000000000
 Pt         0.0000000000        0.0000000000        0.0000000000
 Pt         0.0000000000        0.0000000000        0.0000000000
 Pt        -0.0001031613        0.0000531070       -0.0000643092
 Pt        -0.0001336339        0.0000585914       -0.0000622823
 Pt        -0.0001992297        0.0000458850        0.0000285207
 Pt        -0.0001796977        0.0000316933       -0.0000076600
 Pt        -0.0000955879       -0.0000892877        0.0000573046
 Pt        -0.0000717118       -0.0000667905        0.0000495498
 Pt        -0.0000616116       -0.0000203174       -0.0000538119
 Pt        -0.0000397917       -0.0000383099       -0.0000533559
 Pt        -0.0001169002        0.0000200816        0.0000346074
 Pt        -0.0001746012        0.0000105995        0.0001031011
      60
 i =        5, E =     -7949.3107164181
 Pt         0.0000597491        0.0000404580       -0.0000356060
 Pt         0.0000310657        0.0000239444        0.0000263242
 Pt         0.0000008260        0.0000133728        0.0000186476
 Pt        -0.0000510595        0.0000026585       -0.0000025007
 Pt         0.0000084684       -0.0000202004        0.0000028571
 Pt         0.0000146329       -0.0000340844       -0.0000192679
 Pt        -0.0000183715        0.0000350519        0.0000115923
 Pt         0.0000142077        0.0000510988       -0.0000572029
 Pt         0.0000096833        0.0000384265        0.0000011063
 Pt         0.0000120526        0.0000281324        0.0000046887
 Pt         0.0000507164        0.0000086869        0.0000258634
 Pt         0.0000103900        0.0000017956        0.0000322970
 Ni         0.0000339552       -0.0000191935        0.0000235109
 Ni         0.0000340193       -0.0000369353        0.0000186060
 Ni         0.0000000000        0.0000000000        0.0000000000
 Ni         0.0000000000        0.0000000000        0.0000000000
 Pt         0.0000000000        0.0000000000        0.0000000000
 Pt         0.0000000000        0.0000000000        0.0000000000
 Ni         0.0000000000        0.0000000000        0.0000000000
 Ni         0.0000000000        0.0000000000        0.0000000000
 Pt         0.0000000000        0.0000000000        0.0000000000
 Pt         0.0000000000        0.0000000000        0.0000000000
 Pt         0.0000000000        0.0000000000        0.0000000000
 Pt         0.0000000000        0.0000000000        0.0000000000
 Pt         0.0000000000        0.0000000000        0.0000000000
 Pt         0.0000000000        0.0000000000        0.0000000000
 Ni         0.0000000000        0.0000000000        0.0000000000
 Pt         0.0000000000        0.0000000000        0.0000000000
 Pt         0.0000000000        0.0000000000        0.0000000000
 Pt         0.0000000000        0.0000000000        0.0000000000
 Ni         0.0000000000        0.0000000000        0.0000000000
 Pt         0.0000000000        0.0000000000        0.0000000000
 Ni         0.0000000000        0.0000000000        0.0000000000
 Pt         0.0000000000        0.0000000000        0.0000000000
 Pt         0.0000000000        0.0000000000        0.0000000000
 Pt         0.0000000000        0.0000000000        0.0000000000
 Pt         0.0000000000        0.0000000000        0.0000000000
 Pt         0.0000000000        0.0000000000        0.0000000000
 Pt         0.0000000000        0.0000000000        0.0000000000
 Pt         0.0000000000        0.0000000000        0.0000000000
 Ni         0.0000000000        0.0000000000        0.0000000000
 Pt         0.0000000000        0.0000000000        0.0000000000
 Ni         0.0000000000        0.0000000000        0.0000000000
 Pt         0.0000000000        0.0000000000        0.0000000000
 Ni         0.0000000000        0.0000000000        0.0000000000
 Ni         0.0000000000        0.0000000000        0.0000000000
 Ni         0.0000000000        0.0000000000        0.0000000000
 Ni         0.0000000000        0.0000000000        0.0000000000
 Pt         0.0000000000        0.0000000000        0.0000000000
 Pt         0.0000000000        0.0000000000        0.0000000000
 Pt        -0.0000237151        0.0000081924       -0.0000328944
 Pt        -0.0000121216        0.0000168523       -0.0000228839
 Pt        -0.0000321574        0.0000063688        0.0000590133
 Pt        -0.0000112266        0.0000117166       -0.0000067441
 Pt        -0.0000023320       -0.0000229634        0.0000444832
 Pt         0.0000085751       -0.0000198708        0.0000278582
 Pt         0.0000017466       -0.0000116863       -0.0000383802
 Pt         0.0000145075       -0.0000094008       -0.0000306294
 Pt        -0.0000053992        0.0000193635       -0.0000217636
 Pt        -0.0000350025        0.0000120004        0.0000456315
      60
 i =        6, E =     -7949.3107167652
 Pt         0.0000180369        0.0000095176       -0.0000083610
 Pt         0.0000173888        0.0000165625        0.0000115728
 Pt         0.0000022726        0.0000127363        0.0000108146
 Pt         0.0000029098        0.0000128675       -0.0000026688
 Pt         0.0000124680        0.0000098527       -0.0000006945
 Pt         0.0000143292        0.0000101841       -0.0000049102
 Pt         0.0000076549        0.0000171403        0.0000042233
 Pt         0.0000162605        0.0000116203       -0.0000258696
 Pt         0.0000052376        0.0000156231        0.0000026672
 Pt         0.0000112484        0.0000114764        0.0000050551
 Pt         0.0000085776        0.0000106802        0.0000172515
 Pt         0.0000197289        0.0000162479        0.0000160410
 Ni         0.0000240383        0.0000078030        0.0000006963
 Ni         0.0000154547       -0.0000008701        0.0000002024
 Ni         0.0000000000        0.0000000000        0.0000000000
 Ni         0.0000000000        0.0000000000        0.0000000000
 Pt         0.0000000000        0.0000000000        0.0000000000
 Pt         0.0000000000        0.0000000000        0.0000000000
 Ni         0.0000000000        0.0000000000        0.0000000000
 Ni         0.0000000000        0.0000000000        0.0000000000
 Pt         0.0000000000        0.0000000000        0.0000000000
 Pt         0.0000000000        0.0000000000        0.0000000000
 Pt         0.0000000000        0.0000000000        0.0000000000
 Pt         0.0000000000        0.0000000000        0.0000000000
 Pt         0.0000000000        0.0000000000        0.0000000000
 Pt         0.0000000000        0.0000000000        0.0000000000
 Ni         0.0000000000        0.0000000000        0.0000000000
 Pt         0.0000000000        0.0000000000        0.0000000000
 Pt         0.0000000000        0.0000000000        0.0000000000
 Pt         0.0000000000        0.0000000000        0.0000000000
 Ni         0.0000000000        0.0000000000        0.0000000000
 Pt         0.0000000000        0.0000000000        0.0000000000
 Ni         0.0000000000        0.0000000000        0.0000000000
 Pt         0.0000000000        0.0000000000        0.0000000000
 Pt         0.0000000000        0.0000000000        0.0000000000
 Pt         0.0000000000        0.0000000000        0.0000000000
 Pt         0.0000000000        0.0000000000        0.0000000000
 Pt         0.0000000000        0.0000000000        0.0000000000
 Pt         0.0000000000        0.0000000000        0.0000000000
 Pt         0.0000000000        0.0000000000        0.0000000000
 Ni         0.0000000000        0.0000000000        0.0000000000
 Pt         0.0000000000        0.0000000000        0.0000000000
 Ni         0.0000000000        0.0000000000        0.0000000000
 Pt         0.0000000000        0.0000000000        0.0000000000
 Ni         0.0000000000        0.0000000000        0.0000000000
 Ni         0.0000000000        0.0000000000        0.0000000000
 Ni         0.0000000000        0.0000000000        0.0000000000
 Ni         0.0000000000        0.0000000000        0.0000000000
 Pt         0.0000000000        0.0000000000        0.0000000000
 Pt         0.0000000000        0.0000000000        0.0000000000
 Pt         0.0000026570        0.0000001840       -0.0000090618
 Pt         0.0000093581        0.0000037423       -0.0000023317
 Pt        -0.0000002378        0.0000037003        0.0000245245
 Pt         0.0000065354        0.0000050716       -0.0000027978
 Pt         0.0000005081       -0.0000012846        0.0000118995
 Pt         0.0000037186       -0.0000027323        0.0000068178
 Pt         0.0000053919        0.0000008315       -0.0000104732
 Pt         0.0000116161        0.0000038204       -0.0000059766
 Pt         0.0000044290        0.0000000188       -0.0000117527
 Pt        -0.0000023231       -0.0000023437        0.0000134277
      60
 i =        7, E =     -7949.3096579053
 Pt         0.0000180369        0.0000095176       -0.0000083610
 Pt         0.0000173888        0.0000165625        0.0000115728
 Pt         0.0000022726        0.0000127363        0.0000108146
 Pt         0.0000029098        0.0000128675       -0.0000026688
 Pt         0.0000124680        0.0000098527       -0.0000006945
 Pt         0.0000143292        0.0000101841       -0.0000049102
 Pt         0.0000076549        0.0000171403        0.0000042233
 Pt         0.0000162605        0.0000116203       -0.0000258696
 Pt         0.0000052376        0.0000156231        0.0000026672
 Pt         0.0000112484        0.0000114764        0.0000050551
 Pt         0.0000085776        0.0000106802        0.0000172515
 Pt         0.0000197289        0.0000162479        0.0000160410
 Ni         0.0000240383        0.0000078030        0.0000006963
 Ni         0.0000154547       -0.0000008701        0.0000002024
 Ni         0.0000000000        0.0000000000        0.0000000000
 Ni         0.0000000000        0.0000000000        0.0000000000
 Pt         0.0000000000        0.0000000000        0.0000000000
 Pt         0.0000000000        0.0000000000        0.0000000000
 Ni         0.0000000000        0.0000000000        0.0000000000
 Ni         0.0000000000        0.0000000000        0.0000000000
 Pt         0.0000000000        0.0000000000        0.0000000000
 Pt         0.0000000000        0.0000000000        0.0000000000
 Pt         0.0000000000        0.0000000000        0.0000000000
 Pt         0.0000000000        0.0000000000        0.0000000000
 Pt         0.0000000000        0.0000000000        0.0000000000
 Pt         0.0000000000        0.0000000000        0.0000000000
 Ni         0.0000000000        0.0000000000        0.0000000000
 Pt         0.0000000000        0.0000000000        0.0000000000
 Pt         0.0000000000        0.0000000000        0.0000000000
 Pt         0.0000000000        0.0000000000        0.0000000000
 Ni         0.0000000000        0.0000000000        0.0000000000
 Pt         0.0000000000        0.0000000000        0.0000000000
 Ni         0.0000000000        0.0000000000        0.0000000000
 Pt         0.0000000000        0.0000000000        0.0000000000
 Pt         0.0000000000        0.0000000000        0.0000000000
 Pt         0.0000000000        0.0000000000        0.0000000000
 Pt         0.0000000000        0.0000000000        0.0000000000
 Pt         0.0000000000        0.0000000000        0.0000000000
 Pt         0.0000000000        0.0000000000        0.0000000000
 Pt         0.0000000000        0.0000000000        0.0000000000
 Ni         0.0000000000        0.0000000000        0.0000000000
 Pt         0.0000000000        0.0000000000        0.0000000000
 Ni         0.0000000000        0.0000000000        0.0000000000
 Pt         0.0000000000        0.0000000000        0.0000000000
 Ni         0.0000000000        0.0000000000        0.0000000000
 Ni         0.0000000000        0.0000000000        0.0000000000
 Ni         0.0000000000        0.0000000000        0.0000000000
 Ni         0.0000000000        0.0000000000        0.0000000000
 Pt         0.0000000000        0.0000000000        0.0000000000
 Pt         0.0000000000        0.0000000000        0.0000000000
 Pt         0.0000026570        0.0000001840       -0.0000090618
 Pt         0.0000093581        0.0000037423       -0.0000023317
 Pt        -0.0000002378        0.0000037003        0.0000245245
 Pt         0.0000065354        0.0000050716       -0.0000027978
 Pt         0.0000005081       -0.0000012846        0.0000118995
 Pt         0.0000037186       -0.0000027323        0.0000068178
 Pt         0.0000053919        0.0000008315       -0.0000104732
 Pt         0.0000116161        0.0000038204       -0.0000059766
 Pt         0.0000044290        0.0000000188       -0.0000117527
 Pt        -0.0000023231       -0.0000023437        0.0000134277
