      60
 i =        1, E =     -7949.3126697569
 Pt        -0.0008023957        0.0001232818        0.0009284387
 Pt        -0.0002670038        0.0001437876       -0.0002493995
 Pt         0.0009831371        0.0002246742        0.0008475688
 Pt         0.0009072966       -0.0003286574        0.0007602307
 Pt        -0.0001490016       -0.0001312918       -0.0017871951
 Pt         0.0005639624       -0.0004667396       -0.0019164420
 Pt         0.0003475561        0.0002371035       -0.0033102786
 Pt         0.0011198192        0.0005218321       -0.0030403536
 Pt         0.0002017569        0.0010685600       -0.0012390201
 Pt        -0.0001925367        0.0005111534       -0.0012605231
 Pt        -0.0003050769       -0.0006773254       -0.0025164951
 Pt        -0.0009435175       -0.0001199178       -0.0025868368
 Ni         0.0001547217       -0.0010414659        0.0000807930
 Ni        -0.0004023537       -0.0009419788        0.0002974793
 Ni         0.0003538919       -0.0016844806       -0.0000541809
 Ni        -0.0004842225        0.0000836129        0.0011400256
 Pt         0.0013542210       -0.0010127533        0.0004530034
 Pt         0.0000777610        0.0013239295        0.0005102688
 Ni        -0.0015036505       -0.0014803283        0.0018550393
 Ni         0.0019264211        0.0015809467        0.0035988526
 Pt         0.0010844115       -0.0003401904        0.0003255522
 Pt        -0.0016380906        0.0001147171       -0.0001728016
 Pt        -0.0003476783        0.0017586605        0.0006253477
 Pt        -0.0017840757       -0.0009481323       -0.0000159391
 Pt         0.0001788518        0.0000465069        0.0001422908
 Pt         0.0003717475        0.0007642077        0.0001405817
 Ni        -0.0004794424        0.0022847640       -0.0011549769
 Pt         0.0001374511        0.0003937157        0.0001445363
 Pt         0.0005979365        0.0003686465       -0.0001528858
 Pt         0.0002809790        0.0003286098       -0.0003691288
 Ni         0.0030327898       -0.0007414828       -0.0006234116
 Pt         0.0002754048       -0.0001526411        0.0000461099
 Ni        -0.0008358269       -0.0022241457       -0.0009139919
 Pt        -0.0001312913       -0.0000655650        0.0002581516
 Pt         0.0004479322       -0.0000653384       -0.0005000066
 Pt         0.0002206473        0.0002677855        0.0005476236
 Pt         0.0018494225       -0.0013203344        0.0000662436
 Pt         0.0004824710        0.0018107101       -0.0005136803
 Pt         0.0017469858        0.0002376664        0.0001199847
 Pt        -0.0006738921       -0.0007372381       -0.0005990814
 Ni        -0.0019102959       -0.0010667125       -0.0016267092
 Pt        -0.0000101621        0.0007993990       -0.0004163624
 Ni        -0.0008076075        0.0002897184       -0.0026373907
 Pt        -0.0008639346       -0.0004648613       -0.0005905389
 Ni        -0.0007583370       -0.0000204129       -0.0012046480
 Ni        -0.0008285741        0.0008745228        0.0003151544
 Ni         0.0014221702        0.0005445775        0.0009430859
 Ni        -0.0008817865        0.0011774343        0.0009738510
 Pt         0.0007713032       -0.0000930443        0.0026767201
 Pt         0.0002800316       -0.0006873069        0.0026696436
 Pt         0.0001320866        0.0005044397        0.0013312167
 Pt        -0.0000816070        0.0009893865        0.0010264729
 Pt        -0.0012453324        0.0003740150        0.0027892904
 Pt        -0.0004477418        0.0001417912        0.0034240048
 Pt        -0.0005004820       -0.0002781307        0.0020330589
 Pt         0.0000976613       -0.0002739201        0.0017325487
 Pt        -0.0008191681        0.0001590812       -0.0008938049
 Pt        -0.0006976373       -0.0005443751       -0.0012360676
 Pt         0.0003087289        0.0000402654        0.0004324840
 Pt         0.0006238044        0.0002397556       -0.0007221632
      60
 i =        2, E =     -7949.3139272923
 Pt         0.0006190856        0.0000468757       -0.0005462922
 Pt         0.0003905685       -0.0000160287       -0.0009906662
 Pt        -0.0000021080       -0.0002151036       -0.0007780914
 Pt        -0.0000238392        0.0003132457       -0.0007502133
 Pt         0.0004339923        0.0002871798       -0.0008459336
 Pt         0.0003662562        0.0001981447       -0.0003173590
 Pt         0.0006307457       -0.0000422479       -0.0008170077
 Pt         0.0004634673        0.0000117127        0.0002021728
 Pt        -0.0000588678       -0.0000010134       -0.0003491718
 Pt        -0.0002599212        0.0003082287       -0.0003871752
 Pt        -0.0002147961        0.0001600487       -0.0001793038
 Pt        -0.0003835510       -0.0001630666       -0.0003398450
 Ni        -0.0001446052        0.0000472875       -0.0006051591
 Ni        -0.0002548615       -0.0006538386       -0.0005826897
 Ni        -0.0012971312       -0.0001546931       -0.0004556000
 Ni        -0.0010008879        0.0004026037        0.0000426086
 Pt         0.0007384134       -0.0001098787        0.0004714671
 Pt         0.0001533276        0.0000791272        0.0000935403
 Ni         0.0001332401        0.0002745865       -0.0000772674
 Ni         0.0024335720        0.0014865248       -0.0005850900
 Pt         0.0005006541        0.0002867160        0.0004873361
 Pt        -0.0006256853        0.0002088728       -0.0001931652
 Pt         0.0000430495       -0.0002540528       -0.0000874771
 Pt        -0.0008250778        0.0001069516       -0.0001014798
 Pt         0.0001709767        0.0001207684        0.0000013598
 Pt         0.0001590243        0.0004449946       -0.0001012242
 Ni         0.0013311857       -0.0012133132       -0.0015539264
 Pt         0.0001213601        0.0001372740        0.0000213736
 Pt        -0.0000581400       -0.0000821413        0.0000909929
 Pt         0.0001455331        0.0000364722        0.0001509536
 Ni        -0.0018532196       -0.0004270246       -0.0013738248
 Pt         0.0000584113       -0.0003849082       -0.0003906183
 Ni         0.0010651037        0.0011328783       -0.0014445034
 Pt         0.0001343779        0.0002110687        0.0000782685
 Pt         0.0000293638        0.0003078166        0.0002037331
 Pt         0.0004534482        0.0004418576       -0.0002330665
 Pt         0.0012674576        0.0000858147        0.0004429076
 Pt         0.0003979976        0.0000446044        0.0002817233
 Pt         0.0012538700        0.0003068022       -0.0001144888
 Pt        -0.0004440912        0.0002920610       -0.0000048118
 Ni        -0.0007344959        0.0008084770       -0.0000690312
 Pt         0.0001324571        0.0001476465       -0.0002559278
 Ni        -0.0004131954        0.0002434616        0.0006801561
 Pt        -0.0005866655       -0.0001335760       -0.0001553755
 Ni        -0.0002786768       -0.0003986862       -0.0003440480
 Ni        -0.0012817557        0.0001509292        0.0002820047
 Ni         0.0001671906        0.0004450930        0.0000944313
 Ni         0.0001706290       -0.0013133900        0.0002163905
 Pt         0.0002700298       -0.0001716030        0.0002985119
 Pt         0.0000653111        0.0001603615        0.0002948833
 Pt         0.0004063802        0.0003713269        0.0003735751
 Pt         0.0000107179       -0.0001519856        0.0003387297
 Pt        -0.0003678343        0.0000385642       -0.0001369461
 Pt        -0.0007539012       -0.0000755167        0.0004769662
 Pt        -0.0002911656        0.0001738675        0.0002750599
 Pt        -0.0004670726        0.0003787165        0.0007548581
 Pt         0.0001105934       -0.0002523510        0.0007983158
 Pt        -0.0002509104        0.0004592734        0.0006650972
 Pt        -0.0003664259        0.0000242475        0.0009154312
 Pt        -0.0006051160       -0.0001142975        0.0006654855
      60
 i =        3, E =     -7949.3141998042
 Pt         0.0003544926        0.0000328084       -0.0004627705
 Pt         0.0002186549       -0.0000500729       -0.0005985101
 Pt        -0.0000323551        0.0000918422       -0.0007453204
 Pt         0.0000153080        0.0001552245       -0.0007039897
 Pt         0.0001856958        0.0001509318       -0.0002929362
 Pt         0.0000182847        0.0002897080        0.0000941070
 Pt         0.0001491254        0.0000668836       -0.0001157141
 Pt        -0.0000739047       -0.0000331203        0.0004543606
 Pt         0.0002173230       -0.0000688403       -0.0000892113
 Pt         0.0002326314       -0.0000623014       -0.0002352632
 Pt         0.0002365254        0.0002525672        0.0003096241
 Pt         0.0003272743        0.0001033931        0.0001899318
 Ni         0.0000837388       -0.0000976487       -0.0000973942
 Ni        -0.0001302168       -0.0000971407       -0.0001624781
 Ni        -0.0000091279       -0.0000732272       -0.0001357867
 Ni        -0.0003774671       -0.0002704030        0.0002227626
 Pt         0.0003209166        0.0001601111       -0.0002321349
 Pt         0.0000777191       -0.0003536400       -0.0000603852
 Ni         0.0001622982        0.0001306073        0.0001200673
 Ni         0.0010108571       -0.0008590586       -0.0005590765
 Pt         0.0001056541        0.0003172684       -0.0003713659
 Pt        -0.0000473066        0.0003754151       -0.0002751327
 Pt         0.0000321065       -0.0000735663       -0.0002739483
 Pt        -0.0001118910        0.0000511365       -0.0002521461
 Pt         0.0000796243       -0.0000221424       -0.0000575580
 Pt         0.0000793769        0.0002367456       -0.0001866265
 Ni         0.0000254517        0.0013811999       -0.0016800568
 Pt         0.0000435327       -0.0000354138        0.0000705242
 Pt        -0.0000084145        0.0001015927        0.0000105044
 Pt         0.0001861513        0.0000738958        0.0000192268
 Ni         0.0008405534        0.0002146775       -0.0014577087
 Pt         0.0000940747       -0.0001963673       -0.0001615280
 Ni        -0.0001722041       -0.0011777006       -0.0016441764
 Pt        -0.0000627745        0.0002316276        0.0001212699
 Pt         0.0003089374        0.0001966927       -0.0001098307
 Pt        -0.0001089860        0.0002021776       -0.0003413629
 Pt         0.0004014043        0.0001022732        0.0003535070
 Pt         0.0002378130       -0.0002108496        0.0002797696
 Pt         0.0001112988        0.0003944045        0.0005563886
 Pt        -0.0000614131        0.0001723358        0.0001541260
 Ni        -0.0009095214        0.0003446188        0.0005622610
 Pt        -0.0000081175       -0.0002197442        0.0002706898
 Ni         0.0000085344        0.0002554343        0.0000089577
 Pt        -0.0001297887        0.0002633567        0.0001707372
 Ni        -0.0004831222        0.0001507668        0.0004345335
 Ni        -0.0009614478        0.0001316206       -0.0000621648
 Ni        -0.0002111456       -0.0001083748       -0.0001371950
 Ni         0.0000732450       -0.0006182150       -0.0001412788
 Pt        -0.0003120966        0.0001122380       -0.0003138807
 Pt        -0.0002160411        0.0001662888       -0.0003322166
 Pt        -0.0002982658       -0.0000155091        0.0000165117
 Pt        -0.0001032356       -0.0000389744       -0.0000185782
 Pt         0.0000039586       -0.0000059131       -0.0006532755
 Pt        -0.0001362085        0.0000371042       -0.0000694146
 Pt        -0.0001372184        0.0001945977       -0.0001421477
 Pt        -0.0002798068        0.0001610031       -0.0000148860
 Pt        -0.0000566575        0.0000604704        0.0005921968
 Pt         0.0001004817        0.0001508505        0.0004778404
 Pt        -0.0003682715        0.0000378763        0.0004551749
 Pt        -0.0003940049        0.0000398138        0.0002712120
      60
 i =        4, E =     -7949.3143488930
 Pt         0.0000060875        0.0001148589       -0.0003684885
 Pt         0.0001265321        0.0001386897       -0.0002553506
 Pt         0.0000515116        0.0001906411       -0.0002745665
 Pt         0.0001172137       -0.0001261222       -0.0003187017
 Pt         0.0000023071       -0.0001132657       -0.0001138901
 Pt        -0.0000307441       -0.0000245460       -0.0000121101
 Pt        -0.0001327759        0.0001541563        0.0000740789
 Pt        -0.0001713486        0.0001044873        0.0001245163
 Pt         0.0003263805        0.0001638497        0.0000023243
 Pt         0.0003513740       -0.0000565313       -0.0001086271
 Pt         0.0004618443        0.0000361832        0.0001589592
 Pt         0.0005101759        0.0001719509        0.0001301086
 Ni         0.0002177256        0.0001424788        0.0001094263
 Ni         0.0000521535        0.0005198370        0.0000348301
 Ni         0.0005237468        0.0001388524        0.0000711397
 Ni        -0.0000082230       -0.0002526506        0.0000539458
 Pt        -0.0002093185        0.0002211642       -0.0000984120
 Pt         0.0000519565        0.0000609470       -0.0001895275
 Ni        -0.0000655722       -0.0001882122        0.0001773912
 Ni        -0.0005539384       -0.0019328959        0.0005191946
 Pt        -0.0002677958       -0.0001115042       -0.0002330502
 Pt         0.0003305647       -0.0000147670       -0.0001080636
 Pt         0.0000649141        0.0001148866       -0.0002166173
 Pt         0.0005533401        0.0000534736       -0.0002536126
 Pt        -0.0001159428        0.0000940011       -0.0001219909
 Pt         0.0000168931       -0.0001918346       -0.0001379607
 Ni         0.0005690415        0.0000675322       -0.0003587529
 Pt         0.0000486533       -0.0000894138       -0.0000878557
 Pt         0.0000613074        0.0000810108       -0.0001936733
 Pt         0.0001273941        0.0001359408       -0.0000887871
 Ni         0.0004169391        0.0004127509       -0.0002220043
 Pt         0.0000409969        0.0001514457       -0.0001155590
 Ni         0.0004867203        0.0000522093       -0.0007123098
 Pt        -0.0000623256        0.0001278985       -0.0001047756
 Pt         0.0001421193       -0.0000171631       -0.0001095089
 Pt        -0.0000379313       -0.0000583575       -0.0001157739
 Pt        -0.0004503719       -0.0001646416        0.0000325934
 Pt        -0.0000978343        0.0001791586        0.0000368008
 Pt        -0.0005437237        0.0001955311        0.0001697276
 Pt         0.0001190332       -0.0001073001       -0.0000251843
 Ni        -0.0006078230        0.0001953503        0.0001482231
 Pt        -0.0000368896       -0.0000427756        0.0001332872
 Ni        -0.0001339625        0.0001709324        0.0000068645
 Pt         0.0001260769        0.0003961055        0.0000267575
 Ni        -0.0002548512        0.0000158472        0.0002286820
 Ni        -0.0003170057       -0.0001503275       -0.0000801501
 Ni        -0.0002252278       -0.0002381869       -0.0001220675
 Ni        -0.0000265930        0.0004149993       -0.0001930659
 Pt        -0.0005171308        0.0002592501       -0.0003720064
 Pt        -0.0004148747        0.0000002298       -0.0003960033
 Pt        -0.0004007783       -0.0000861676       -0.0002732367
 Pt        -0.0003384843        0.0001618435       -0.0002019888
 Pt         0.0001060994        0.0000977644       -0.0004128425
 Pt         0.0000747686        0.0001620070       -0.0004804526
 Pt        -0.0001342203       -0.0000868377       -0.0002563442
 Pt        -0.0000015265       -0.0000405565       -0.0002753607
 Pt        -0.0001108925        0.0002298370       -0.0000477368
 Pt        -0.0000411677       -0.0001356784        0.0000749950
 Pt        -0.0002512585        0.0001842738       -0.0001081283
 Pt        -0.0000852737        0.0001415455       -0.0000253697
      60
 i =        5, E =     -7949.3144097508
 Pt         0.0000440168        0.0000458429       -0.0000739626
 Pt         0.0001253090        0.0000830534        0.0000163208
 Pt         0.0000929514        0.0001287608        0.0000426115
 Pt         0.0001133806       -0.0000058176        0.0000830626
 Pt         0.0001288319       -0.0000249987       -0.0000573149
 Pt         0.0001116973       -0.0000009387       -0.0001122387
 Pt         0.0000615285        0.0000861909       -0.0000562355
 Pt         0.0000776112        0.0000961364       -0.0002730171
 Pt         0.0001157047        0.0000398222        0.0000356446
 Pt         0.0001497066        0.0000226472       -0.0000675668
 Pt         0.0001777292        0.0000075659       -0.0000187466
 Pt         0.0001815004        0.0000514166       -0.0000241409
 Ni         0.0001468386        0.0002652801        0.0001050500
 Ni         0.0001431028        0.0004151330        0.0000646104
 Ni         0.0001587813        0.0001562998        0.0000169739
 Ni         0.0001359952       -0.0001162902        0.0000034216
 Pt        -0.0002089854       -0.0000151773       -0.0002607253
 Pt         0.0001003629        0.0001264260       -0.0001724137
 Ni        -0.0000121102       -0.0000866527        0.0000158897
 Ni        -0.0004673926       -0.0002911657        0.0000468472
 Pt        -0.0001581788       -0.0000680618       -0.0003124909
 Pt         0.0003078921       -0.0001162041        0.0000029563
 Pt         0.0000429394        0.0000214727       -0.0001114261
 Pt         0.0004549637        0.0000676956       -0.0000756406
 Pt        -0.0000440838        0.0000367397       -0.0000955283
 Pt         0.0000605545       -0.0001039319       -0.0000578904
 Ni        -0.0000344780        0.0003043244        0.0005356182
 Pt        -0.0000343412       -0.0000190932       -0.0000637522
 Pt         0.0000348316        0.0000766879       -0.0001125269
 Pt         0.0000292161        0.0000571667       -0.0001475963
 Ni         0.0001222781        0.0003259693        0.0005321431
 Pt         0.0001165011        0.0001727511       -0.0001106323
 Ni         0.0001109865       -0.0003661911        0.0004855304
 Pt        -0.0000423939        0.0000146031       -0.0001482506
 Pt        -0.0000738306       -0.0000705086       -0.0000497570
 Pt         0.0000397186       -0.0000484066       -0.0000881220
 Pt        -0.0004652280        0.0000696620       -0.0003522907
 Pt        -0.0001882222        0.0001362212       -0.0001906678
 Pt        -0.0004501058        0.0000116625       -0.0002759406
 Pt         0.0000826117        0.0000017982       -0.0000789318
 Ni        -0.0000603977        0.0001338069        0.0000905190
 Pt        -0.0000831888        0.0001319797       -0.0000916981
 Ni         0.0000019043        0.0001541047       -0.0000271755
 Pt         0.0001201299        0.0000785042       -0.0000809110
 Ni        -0.0000907835       -0.0000600084        0.0001680370
 Ni        -0.0000468949       -0.0001989957       -0.0000773094
 Ni        -0.0000496533       -0.0001137680       -0.0000563823
 Ni         0.0000538617        0.0004435196       -0.0000561946
 Pt        -0.0002541380        0.0001105632       -0.0001826841
 Pt        -0.0002540152        0.0000624061       -0.0001997874
 Pt        -0.0002505477        0.0000164195       -0.0002386581
 Pt        -0.0002336962        0.0000911514       -0.0001811894
 Pt        -0.0001270779        0.0001117356        0.0000066868
 Pt        -0.0000368538        0.0001173772       -0.0002206016
 Pt        -0.0001723002        0.0000155512       -0.0001410528
 Pt        -0.0000991800        0.0000207319       -0.0002058593
 Pt        -0.0002329987        0.0001578542       -0.0003172592
 Pt        -0.0001802104       -0.0000004566       -0.0001745611
 Pt        -0.0001422650        0.0000804764       -0.0003257607
 Pt        -0.0001059278        0.0000867448       -0.0002000920
      60
 i =        6, E =     -7949.3144411747
 Pt         0.0001039943        0.0000452674        0.0000642804
 Pt         0.0000821699        0.0000549057        0.0000205800
 Pt         0.0001545754        0.0000056819        0.0001105768
 Pt         0.0001459641        0.0000616730        0.0001564992
 Pt         0.0001453649        0.0000430138       -0.0000719244
 Pt         0.0001663756        0.0000223139       -0.0001457255
 Pt         0.0001869923        0.0000201844       -0.0000732151
 Pt         0.0002112504        0.0000309024       -0.0002845804
 Pt         0.0000486253        0.0000296131       -0.0000150000
 Pt         0.0000395435        0.0000922696       -0.0000208630
 Pt         0.0000200249        0.0000342441       -0.0001241668
 Pt         0.0000032062        0.0000139271       -0.0001319583
 Ni         0.0000000897       -0.0000727933       -0.0000042593
 Ni         0.0001169818       -0.0001668969        0.0000373226
 Ni        -0.0001201364        0.0000767550       -0.0000103244
 Ni         0.0000982792        0.0000205018       -0.0001054302
 Pt        -0.0000415977        0.0000326603       -0.0001015215
 Pt         0.0000558681        0.0000608488       -0.0000853114
 Ni         0.0000098684       -0.0000179477       -0.0001347217
 Ni         0.0002965790        0.0002133798       -0.0001066709
 Pt         0.0000025644       -0.0000285615       -0.0001046000
 Pt         0.0000781426       -0.0000229013       -0.0000485943
 Pt         0.0000573633        0.0000547360       -0.0000786873
 Pt         0.0000932270       -0.0000117724       -0.0000229451
 Pt         0.0000586084        0.0000211613       -0.0000767663
 Pt         0.0000040859        0.0000295025       -0.0000763446
 Ni        -0.0000308359       -0.0000713734       -0.0000240158
 Pt        -0.0000009008        0.0000708541       -0.0000765275
 Pt         0.0000236034        0.0000256181       -0.0000629199
 Pt        -0.0000419784       -0.0000033002       -0.0000727938
 Ni        -0.0001433348        0.0002140892       -0.0001036240
 Pt         0.0000214753        0.0001476530       -0.0000876071
 Ni         0.0001172377        0.0000620628        0.0000788643
 Pt         0.0000717187        0.0000135378       -0.0001100020
 Pt        -0.0000421938       -0.0000181929       -0.0000739087
 Pt         0.0000274309        0.0000127988       -0.0000996467
 Pt        -0.0001972645        0.0001702501       -0.0002804482
 Pt        -0.0001426659        0.0000324948       -0.0002009563
 Pt        -0.0001396367       -0.0000974851       -0.0002576085
 Pt        -0.0000353556        0.0000849624       -0.0001763063
 Ni         0.0001153522        0.0000412807       -0.0001679775
 Pt        -0.0000698977        0.0001810293       -0.0001826509
 Ni         0.0000628438        0.0001329895       -0.0001500800
 Pt        -0.0000163597       -0.0000360477       -0.0001499944
 Ni        -0.0000240035       -0.0000575629       -0.0001619255
 Ni        -0.0001612216        0.0000409979       -0.0000180434
 Ni         0.0000721778        0.0000440434        0.0000447063
 Ni         0.0000047400       -0.0000025152        0.0000593694
 Pt        -0.0000875155        0.0000291525        0.0000086812
 Pt        -0.0000998444        0.0000730024       -0.0000158361
 Pt        -0.0001351296        0.0001196148       -0.0001103894
 Pt        -0.0001323841        0.0000844895       -0.0000896916
 Pt        -0.0002667241        0.0000685590        0.0001273028
 Pt        -0.0002067377        0.0000665257       -0.0000223787
 Pt        -0.0001823070        0.0000743695       -0.0000302974
 Pt        -0.0001743435        0.0000569700       -0.0000029818
 Pt        -0.0002264490        0.0000353269       -0.0002811892
 Pt        -0.0002248533        0.0000917024       -0.0002019569
 Pt        -0.0000953161        0.0000812008       -0.0001940324
 Pt        -0.0001303466        0.0000773243       -0.0001301388
      60
 i =        7, E =     -7949.3144672282
 Pt         0.0001009555        0.0000356468        0.0000224431
 Pt         0.0000652248       -0.0000086502       -0.0000155474
 Pt         0.0001861716       -0.0000416073        0.0000489663
 Pt         0.0001574428        0.0000709929        0.0000742315
 Pt         0.0001062776        0.0000826493       -0.0000649561
 Pt         0.0001463180        0.0000559065       -0.0000999532
 Pt         0.0001695452       -0.0000212076       -0.0000328217
 Pt         0.0002243800       -0.0000110842       -0.0001286585
 Pt         0.0000567129        0.0000259260       -0.0000597208
 Pt         0.0000432750        0.0000547554        0.0000171788
 Pt        -0.0000221786        0.0000373490       -0.0001225435
 Pt        -0.0000326810        0.0000181660       -0.0001024100
 Ni        -0.0000883365       -0.0001663924       -0.0001162423
 Ni         0.0000880037       -0.0002712385       -0.0000605796
 Ni        -0.0002483442        0.0000047170       -0.0000529993
 Ni         0.0000792950        0.0002009530       -0.0000032307
 Pt         0.0001146226        0.0000332473        0.0000259914
 Pt        -0.0000021573       -0.0000099262        0.0000118043
 Ni         0.0000380003        0.0000484968       -0.0000398326
 Ni        -0.0000064613        0.0003653268       -0.0000932033
 Pt         0.0001213344        0.0000631815        0.0000746963
 Pt        -0.0001111717        0.0000984202       -0.0000180752
 Pt         0.0000624667       -0.0000050948        0.0000255983
 Pt        -0.0001672776        0.0000011990        0.0000368419
 Pt         0.0000532313        0.0000641734       -0.0000560618
 Pt        -0.0000189226        0.0001049144       -0.0001284049
 Ni        -0.0001982817       -0.0002822311        0.0001039183
 Pt         0.0000103797        0.0001164087       -0.0001151315
 Pt         0.0000029560       -0.0000307165       -0.0000678628
 Pt        -0.0000460541       -0.0000529077       -0.0000605550
 Ni        -0.0001520801        0.0002627951        0.0001046147
 Pt        -0.0000330956        0.0000157083       -0.0000931145
 Ni        -0.0001596086        0.0002178952        0.0002353325
 Pt         0.0000873080       -0.0000195046       -0.0000441873
 Pt        -0.0000270577        0.0000784268       -0.0001126949
 Pt         0.0000228904        0.0000234264       -0.0001228041
 Pt         0.0000235315        0.0001526983       -0.0001086435
 Pt        -0.0000682233       -0.0000413765       -0.0001443820
 Pt         0.0000705639       -0.0000057378       -0.0001006197
 Pt        -0.0001015687        0.0001080009       -0.0001277368
 Ni         0.0003837993       -0.0001767322       -0.0000658006
 Pt        -0.0000711895        0.0000564158       -0.0001233678
 Ni        -0.0000247547        0.0000054961        0.0000564931
 Pt        -0.0001124687       -0.0000019373       -0.0001095270
 Ni         0.0000725746        0.0000459889       -0.0000962232
 Ni        -0.0001416846       -0.0001948390        0.0000371145
 Ni         0.0000709216        0.0000989925        0.0000391459
 Ni        -0.0000382297       -0.0002402606        0.0000369123
 Pt         0.0000012362       -0.0000020657       -0.0000056232
 Pt        -0.0000249604        0.0000947785       -0.0000136200
 Pt        -0.0000619413        0.0001443247       -0.0000704031
 Pt        -0.0000768473        0.0000413231       -0.0000765498
 Pt        -0.0002736996        0.0000385516        0.0000406598
 Pt        -0.0003038711        0.0000342868       -0.0000461560
 Pt        -0.0001527890        0.0001144146       -0.0000456912
 Pt        -0.0002234910        0.0001056050       -0.0000085259
 Pt        -0.0001702365       -0.0000294910       -0.0001751587
 Pt        -0.0001975381        0.0001632534       -0.0001675285
 Pt        -0.0000891439        0.0000596979       -0.0000805132
 Pt        -0.0001706502        0.0000532097       -0.0001027937
      60
 i =        8, E =     -7949.3144968060
 Pt         0.0001127245       -0.0000093135        0.0000010763
 Pt         0.0000696804       -0.0000424015       -0.0000471375
 Pt         0.0000791361       -0.0000522835        0.0000019739
 Pt         0.0000663658        0.0000586397       -0.0000300661
 Pt         0.0000933633        0.0000844213       -0.0000113649
 Pt         0.0000814917        0.0000522737       -0.0000090677
 Pt         0.0001050333       -0.0000185364        0.0000000925
 Pt         0.0001246821        0.0000011901        0.0000956097
 Pt         0.0000443958        0.0000097590       -0.0000523805
 Pt         0.0000520489        0.0000221942        0.0000656155
 Pt         0.0000069805        0.0000199192       -0.0000734625
 Pt         0.0000282214       -0.0000070658       -0.0000068398
 Ni        -0.0001055861       -0.0000140450       -0.0001285527
 Ni        -0.0000306699       -0.0000366723       -0.0001197343
 Ni         0.0000200276       -0.0001020674       -0.0000600749
 Ni         0.0001085761        0.0002109386       -0.0000450209
 Pt         0.0002222217       -0.0000136134        0.0000568588
 Pt        -0.0000427087        0.0000348583       -0.0000168628
 Ni         0.0000094258        0.0000753738       -0.0000439112
 Ni         0.0000477340        0.0004686248       -0.0000293522
 Pt         0.0001880388        0.0001421291        0.0001275241
 Pt        -0.0002471083        0.0001583028       -0.0000829528
 Pt         0.0000104604       -0.0000394210        0.0000387377
 Pt        -0.0003421501        0.0000372380       -0.0000376496
 Pt        -0.0000202229        0.0000167979        0.0000311639
 Pt        -0.0000316997        0.0001036487       -0.0000248563
 Ni        -0.0001910317       -0.0002487086        0.0000638597
 Pt         0.0000073194        0.0000302544       -0.0001096706
 Pt        -0.0000535751        0.0000389313       -0.0000088231
 Pt        -0.0000447023        0.0000089250       -0.0000073327
 Ni        -0.0001083316        0.0004654846        0.0000118741
 Pt        -0.0000351463       -0.0001582171        0.0000579037
 Ni        -0.0003781017        0.0002484841        0.0000352722
 Pt         0.0000542736        0.0000095481        0.0000416215
 Pt        -0.0000495046        0.0000745763       -0.0000254224