 DBCSR| CPU Multiplication driver                                           XSMM (U)
 DBCSR| Multrec recursion limit                                              512 (U)
 DBCSR| Multiplication stack size                                           1000 (D)
 DBCSR| Maximum elements for images                                    UNLIMITED (U)
 DBCSR| Multiplicative factor virtual images                                   1 (U)
 DBCSR| Use multiplication densification                                       T (D)
 DBCSR| Multiplication size stacks                                             3 (U)
 DBCSR| Use memory pool for CPU allocation                                     F (U)
 DBCSR| Number of 3D layers                                               SINGLE (U)
 DBCSR| Use MPI memory allocation                                              F (U)
 DBCSR| Use RMA algorithm                                                      F (U)
 DBCSR| Use Communication thread                                               T (U)
 DBCSR| Communication thread load                                             87 (D)
 DBCSR| MPI: My process id                                                     0
 DBCSR| MPI: Number of processes                                             128
 DBCSR| OMP: Current number of threads                                         1
 DBCSR| OMP: Max number of threads                                             1
 DBCSR| Split modifier for TAS multiplication algorithm                  1.0E+00 (U)


  **** **** ******  **  PROGRAM STARTED AT               2023-02-15 17:08:36.189
 ***** ** ***  *** **   PROGRAM STARTED ON                             nid006727
 **    ****   ******    PROGRAM STARTED BY                                cahart
 ***** **    ** ** **   PROGRAM PROCESS ID                                231555
  **** **  *******  **  PROGRAM STARTED IN /mnt/lustre/a2fs-work2/work/e05/e05/c
                                           ahart/postdoc/masters/ni/archer2/slab
                                           /optimise/magnetisation/scf_1e-4_temp
                                           -2000_mos-1000_alpha-0.08_beta-1.5_pe
                                           riodic-xyz/search/0.73_0.8

 CP2K| version string:                 CP2K version 2023.1 (Development Version)
 CP2K| source code revision number:                                  git:964cd58
 CP2K| cp2kflags: omp libint fftw3 libxc elpa parallel scalapack xsmm plumed2 mk
 CP2K|            l
 CP2K| is freely available from                            https://www.cp2k.org/
 CP2K| Program compiled at                          Mon 13 Feb 17:05:14 GMT 2023
 CP2K| Program compiled on                                                  ln01
 CP2K| Program compiled for                                              ARCHER2
 CP2K| Data directory path    /work/e05/e05/cahart/cp2k/cp2k-2023.1/cp2k-2023.1-
 CP2K| Input file name                                                  cp2k.inp

 GLOBAL| Force Environment number                                              1
 GLOBAL| Basis set file name                                        BASIS_MOLOPT
 GLOBAL| Potential file name                                      GTH_POTENTIALS
 GLOBAL| MM Potential file name                                     MM_POTENTIAL
 GLOBAL| Coordinate file name                                      __STD_INPUT__
 GLOBAL| Method name                                                        CP2K
 GLOBAL| Project name                                                    Ni_bulk
 GLOBAL| Run type                                                         ENERGY
 GLOBAL| FFT library                                                       FFTW3
 GLOBAL| Diagonalization library                                            ELPA
 GLOBAL| DGEMM library                                                      BLAS
 GLOBAL| Minimum number of eigenvectors for ELPA usage                        16
 GLOBAL| Orthonormality check for eigenvectors                          DISABLED
 GLOBAL| Matrix multiplication library                                 ScaLAPACK
 GLOBAL| All-to-all communication in single precision                          F
 GLOBAL| FFTs using library dependent lengths                                  F
 GLOBAL| Grid backend                                                       AUTO
 GLOBAL| Global print level                                               MEDIUM
 GLOBAL| MPI I/O enabled                                                       T
 GLOBAL| Total number of message passing processes                           128
 GLOBAL| Number of threads for this process                                    1
 GLOBAL| This output is from process                                           0
 GLOBAL| Stack size for threads created by OpenMP (OMP_STACKSIZE)        default
 GLOBAL| CPU model name                          AMD EPYC 7742 64-Core Processor
 GLOBAL| CPUID                                                              1002

 MEMORY| system memory details [Kb]
 MEMORY|                        rank 0           min           max       average
 MEMORY| MemTotal            263528088     263528088     263528088     263528088
 MEMORY| MemFree             238827152     238827152     238827152     238827152
 MEMORY| Buffers                 24480         24480         24480         24480
 MEMORY| Cached                 656872        656872        656872        656872
 MEMORY| Slab                  1579632       1579632       1579632       1579632
 MEMORY| SReclaimable           103040        103040        103040        103040
 MEMORY| MemLikelyFree       239611544     239611544     239611544     239611544


 *** Fundamental physical constants (SI units) ***

 *** Literature: B. J. Mohr and B. N. Taylor,
 ***             CODATA recommended values of the fundamental physical
 ***             constants: 2006, Web Version 5.1
 ***             http://physics.nist.gov/constants

 Speed of light in vacuum [m/s]                             2.99792458000000E+08
 Magnetic constant or permeability of vacuum [N/A**2]       1.25663706143592E-06
 Electric constant or permittivity of vacuum [F/m]          8.85418781762039E-12
 Planck constant (h) [J*s]                                  6.62606896000000E-34
 Planck constant (h-bar) [J*s]                              1.05457162825177E-34
 Elementary charge [C]                                      1.60217648700000E-19
 Electron mass [kg]                                         9.10938215000000E-31
 Electron g factor [ ]                                     -2.00231930436220E+00
 Proton mass [kg]                                           1.67262163700000E-27
 Fine-structure constant                                    7.29735253760000E-03
 Rydberg constant [1/m]                                     1.09737315685270E+07
 Avogadro constant [1/mol]                                  6.02214179000000E+23
 Boltzmann constant [J/K]                                   1.38065040000000E-23
 Atomic mass unit [kg]                                      1.66053878200000E-27
 Bohr radius [m]                                            5.29177208590000E-11

 *** Conversion factors ***

 [u] -> [a.u.]                                              1.82288848426455E+03
 [Angstrom] -> [Bohr] = [a.u.]                              1.88972613288564E+00
 [a.u.] = [Bohr] -> [Angstrom]                              5.29177208590000E-01
 [a.u.] -> [s]                                              2.41888432650478E-17
 [a.u.] -> [fs]                                             2.41888432650478E-02
 [a.u.] -> [J]                                              4.35974393937059E-18
 [a.u.] -> [N]                                              8.23872205491840E-08
 [a.u.] -> [K]                                              3.15774647902944E+05
 [a.u.] -> [kJ/mol]                                         2.62549961709828E+03
 [a.u.] -> [kcal/mol]                                       6.27509468713739E+02
 [a.u.] -> [Pa]                                             2.94210107994716E+13
 [a.u.] -> [bar]                                            2.94210107994716E+08
 [a.u.] -> [atm]                                            2.90362800883016E+08
 [a.u.] -> [eV]                                             2.72113838565563E+01
 [a.u.] -> [Hz]                                             6.57968392072181E+15
 [a.u.] -> [1/cm] (wave numbers)                            2.19474631370540E+05
 [a.u./Bohr**2] -> [1/cm]                                   5.14048714338585E+03
 

 CELL_TOP| Volume [angstrom^3]:                                       983.249569
 CELL_TOP| Vector a [angstrom     7.012     0.000     0.000   |a| =     7.011596
 CELL_TOP| Vector b [angstrom     0.000     7.012     0.000   |b| =     7.011596
 CELL_TOP| Vector c [angstrom     0.000     0.000    20.000   |c| =    20.000000
 CELL_TOP| Angle (b,c), alpha [degree]:                                90.000000
 CELL_TOP| Angle (a,c), beta  [degree]:                                90.000000
 CELL_TOP| Angle (a,b), gamma [degree]:                                90.000000
 CELL_TOP| Numerically orthorhombic:                                         YES
 CELL_TOP| Periodicity                                                       XYZ

 GENERATE|  Preliminary Number of Bonds generated:                             0
 GENERATE|  Achieved consistency in connectivity generation.

 CELL| Volume [angstrom^3]:                                           983.249569
 CELL| Vector a [angstrom]:       7.012     0.000     0.000   |a| =     7.011596
 CELL| Vector b [angstrom]:       0.000     7.012     0.000   |b| =     7.011596
 CELL| Vector c [angstrom]:       0.000     0.000    20.000   |c| =    20.000000
 CELL| Angle (b,c), alpha [degree]:                                    90.000000
 CELL| Angle (a,c), beta  [degree]:                                    90.000000
 CELL| Angle (a,b), gamma [degree]:                                    90.000000
 CELL| Numerically orthorhombic:                                             YES
 CELL| Periodicity                                                           XYZ

 CELL_REF| Volume [angstrom^3]:                                       983.249569
 CELL_REF| Vector a [angstrom     7.012     0.000     0.000   |a| =     7.011596
 CELL_REF| Vector b [angstrom     0.000     7.012     0.000   |b| =     7.011596
 CELL_REF| Vector c [angstrom     0.000     0.000    20.000   |c| =    20.000000
 CELL_REF| Angle (b,c), alpha [degree]:                                90.000000
 CELL_REF| Angle (a,c), beta  [degree]:                                90.000000
 CELL_REF| Angle (a,b), gamma [degree]:                                90.000000
 CELL_REF| Numerically orthorhombic:                                         YES
 CELL_REF| Periodicity                                                       XYZ

 *** WARNING in cryssym.F:165 :: Symmetry library SPGLIB not available ***


 *******************************************************************************
                                    Kpoints
 *******************************************************************************
 BRILLOUIN| K-point scheme                                        Monkhorst-Pack
 BRILLOUIN| K-Point grid                                             4    4    1
 BRILLOUIN| Accuracy in Symmetry determination                      0.100000E-05
 BRILLOUIN| K-Point point group symmetrization                               OFF
 BRILLOUIN| Wavefunction type                                            COMPLEX
 BRILLOUIN| List of Kpoints [2 Pi/Bohr]                                        8
 BRILLOUIN| Number           Weight            X              Y              Z
 BRILLOUIN|     1           0.12500       -0.37500       -0.37500        0.00000
 BRILLOUIN|     2           0.12500       -0.37500       -0.12500        0.00000
 BRILLOUIN|     3           0.12500       -0.37500        0.12500        0.00000
 BRILLOUIN|     4           0.12500       -0.37500        0.37500        0.00000
 BRILLOUIN|     5           0.12500       -0.12500       -0.37500        0.00000
 BRILLOUIN|     6           0.12500       -0.12500       -0.12500        0.00000
 BRILLOUIN|     7           0.12500       -0.12500        0.12500        0.00000
 BRILLOUIN|     8           0.12500       -0.12500        0.37500        0.00000
 *******************************************************************************

 *******************************************************************************
 *******************************************************************************
 **                                                                           **
 **     #####                         ##              ##                      **
 **    ##   ##            ##          ##              ##                      **
 **   ##     ##                       ##            ######                    **
 **   ##     ##  ##   ##  ##   #####  ##  ##   ####   ##    #####    #####    **
 **   ##     ##  ##   ##  ##  ##      ## ##   ##      ##   ##   ##  ##   ##   **
 **   ##  ## ##  ##   ##  ##  ##      ####     ###    ##   ######   ######    **
 **    ##  ###   ##   ##  ##  ##      ## ##      ##   ##   ##       ##        **
 **     #######   #####   ##   #####  ##  ##  ####    ##    #####   ##        **
 **           ##                                                    ##        **
 **                                                                           **
 **                                                ... make the atoms dance   **
 **                                                                           **
 **            Copyright (C) by CP2K developers group (2000-2023)             **
 **                      J. Chem. Phys. 152, 194103 (2020)                    **
 **                                                                           **
 *******************************************************************************

 *** WARNING in qs_environment.F:1456 :: Number of electrons will be ***
 *** overwritten by NELEC_ALPHA and NELEC_BETA, multiplicity will be ***
 *** ignored.                                                        ***

 Number of electrons should be                                               576
 Sum of NELEC_ALPHA and NELEC_BETA is                                    576.000

 *** WARNING in qs_environment.F:1488 :: NELEC_ALPHA is not an integer, ***
 *** many features will not be supported.                               ***


 *** WARNING in qs_environment.F:1500 :: NELEC_BETA is not an integer, ***
 *** many features will not be supported.                              ***


 *** WARNING in qs_environment.F:1532 :: More ADDED_MOs requested for beta ***
 *** spin than available.                                                  ***


 *** WARNING in qs_environment.F:1548 :: More added MOs requested than     ***
 *** available. The full set of unoccupied MOs will be used. Use           ***
 *** 'ADDED_MOS -1' to always use all available MOs and to get rid of this ***
 *** warning.                                                              ***


 DFT| Spin unrestricted (spin-polarized) Kohn-Sham calculation               UKS
 DFT| Multiplicity                                                             1
 DFT| Number of spin states                                                    2
 DFT| Charge                                                                   0
 DFT| Self-interaction correction (SIC)                                       NO
 DFT| Cutoffs: density                                              1.000000E-10
 DFT|          gradient                                             1.000000E-10
 DFT|          tau                                                  1.000000E-10
 DFT|          cutoff_smoothing_range                               0.000000E+00
 DFT| XC density smoothing                                                  NONE
 DFT| XC derivatives                                                          PW

 FUNCTIONAL| PBE:
 FUNCTIONAL| J.P.Perdew, K.Burke, M.Ernzerhof, Phys. Rev. Letter, vol. 77, n 18,
 FUNCTIONAL|  pp. 3865-3868, (1996){spin polarized}                             

 vdW POTENTIAL|                                                   Pair Potential
 vdW POTENTIAL|          DFT-D3 (Version 3.1)
 vdW POTENTIAL|          Potential Form: S. Grimme et al, JCP 132: 154104 (2010)
 vdW POTENTIAL|          Zero Damping
 vdW POTENTIAL|          Cutoff Radius [Bohr]:                             20.00
 vdW POTENTIAL|          s6 Scaling Factor:                               1.0000
 vdW POTENTIAL|          sr6 Scaling Factor:                              1.2170
 vdW POTENTIAL|          s8 Scaling Factor:                               0.7220
 vdW POTENTIAL|          Cutoff for CN calculation:                   0.1000E-05

 QS| Method:                                                                 GPW
 QS| Density plane wave grid type                        NON-SPHERICAL FULLSPACE
 QS| Number of grid levels:                                                    5
 QS| Density cutoff [a.u.]:                                                300.0
 QS| Multi grid cutoff [a.u.]: 1) grid level                               300.0
 QS|                           2) grid level                               100.0
 QS|                           3) grid level                                33.3
 QS|                           4) grid level                                11.1
 QS|                           5) grid level                                 3.7
 QS| Grid level progression factor:                                          3.0
 QS| Relative density cutoff [a.u.]:                                        30.0
 QS| Interaction thresholds: eps_pgf_orb:                                1.0E-06
 QS|                         eps_filter_matrix:                          0.0E+00
 QS|                         eps_core_charge:                            1.0E-14
 QS|                         eps_rho_gspace:                             1.0E-12
 QS|                         eps_rho_rspace:                             1.0E-12
 QS|                         eps_gvg_rspace:                             1.0E-06
 QS|                         eps_ppl:                                    1.0E-02
 QS|                         eps_ppnl:                                   1.0E-08


 ATOMIC KIND INFORMATION

  1. Atomic kind: Ni_i                                  Number of atoms:      16

     Orbital Basis Set                                        DZVP-MOLOPT-SR-GTH

       Number of orbital shell sets:                                           1
       Number of orbital shells:                                               8
       Number of primitive Cartesian functions:                                6
       Number of Cartesian basis functions:                                   31
       Number of spherical basis functions:                                   26
       Norm type:                                                              2

       Normalised Cartesian orbitals:

                        Set   Shell   Orbital            Exponent    Coefficient

                          1       1    2s               10.077428      -0.684558
                                                         5.847736      -0.844524
                                                         2.494033       1.088856
                                                         0.988355       0.395503
                                                         0.344978       0.010224
                                                         0.099466      -0.003250

                          1       2    3s               10.077428       0.096747
                                                         5.847736       0.162504
                                                         2.494033      -0.297192
                                                         0.988355      -0.319752
                                                         0.344978       0.088318
                                                         0.099466       0.118587

                          1       3    4s               10.077428       0.036437
                                                         5.847736      -0.381480
                                                         2.494033       0.003759
                                                         0.988355      -1.048256
                                                         0.344978       0.855825
                                                         0.099466      -0.176350

                          1       4    3px              10.077428      -3.133913
                                                         5.847736       3.027656
                                                         2.494033       2.353227
                                                         0.988355       0.554184
                                                         0.344978       0.019462
                                                         0.099466      -0.000291
                          1       4    3py              10.077428      -3.133913
                                                         5.847736       3.027656
                                                         2.494033       2.353227
                                                         0.988355       0.554184
                                                         0.344978       0.019462
                                                         0.099466      -0.000291
                          1       4    3pz              10.077428      -3.133913
                                                         5.847736       3.027656
                                                         2.494033       2.353227
                                                         0.988355       0.554184
                                                         0.344978       0.019462
                                                         0.099466      -0.000291

                          1       5    4px              10.077428      -0.112729
                                                         5.847736      -0.114008
                                                         2.494033      -0.347303
                                                         0.988355      -0.110323
                                                         0.344978       0.154096
                                                         0.099466       0.058386
                          1       5    4py              10.077428      -0.112729
                                                         5.847736      -0.114008
                                                         2.494033      -0.347303
                                                         0.988355      -0.110323
                                                         0.344978       0.154096
                                                         0.099466       0.058386
                          1       5    4pz              10.077428      -0.112729
                                                         5.847736      -0.114008
                                                         2.494033      -0.347303
                                                         0.988355      -0.110323
                                                         0.344978       0.154096
                                                         0.099466       0.058386

                          1       6    4dx2             10.077428       8.232726
                                                         5.847736       9.105758
                                                         2.494033       2.849835
                                                         0.988355       0.554319
                                                         0.344978       0.067245
                                                         0.099466       0.001940
                          1       6    4dxy             10.077428      14.259500
                                                         5.847736      15.771636
                                                         2.494033       4.936060
                                                         0.988355       0.960109
                                                         0.344978       0.116472
                                                         0.099466       0.003360
                          1       6    4dxz             10.077428      14.259500
                                                         5.847736      15.771636
                                                         2.494033       4.936060
                                                         0.988355       0.960109
                                                         0.344978       0.116472
                                                         0.099466       0.003360
                          1       6    4dy2             10.077428       8.232726
                                                         5.847736       9.105758
                                                         2.494033       2.849835
                                                         0.988355       0.554319
                                                         0.344978       0.067245
                                                         0.099466       0.001940
                          1       6    4dyz             10.077428      14.259500
                                                         5.847736      15.771636
                                                         2.494033       4.936060
                                                         0.988355       0.960109
                                                         0.344978       0.116472
                                                         0.099466       0.003360
                          1       6    4dz2             10.077428       8.232726
                                                         5.847736       9.105758
                                                         2.494033       2.849835
                                                         0.988355       0.554319
                                                         0.344978       0.067245
                                                         0.099466       0.001940

                          1       7    5dx2             10.077428      -2.715373
                                                         5.847736      -4.020640
                                                         2.494033      -1.397569
                                                         0.988355      -0.076143
                                                         0.344978       0.033435
                                                         0.099466       0.026032
                          1       7    5dxy             10.077428      -4.703164
                                                         5.847736      -6.963952
                                                         2.494033      -2.420661
                                                         0.988355      -0.131883
                                                         0.344978       0.057911
                                                         0.099466       0.045088
                          1       7    5dxz             10.077428      -4.703164
                                                         5.847736      -6.963952
                                                         2.494033      -2.420661
                                                         0.988355      -0.131883
                                                         0.344978       0.057911
                                                         0.099466       0.045088
                          1       7    5dy2             10.077428      -2.715373
                                                         5.847736      -4.020640
                                                         2.494033      -1.397569
                                                         0.988355      -0.076143
                                                         0.344978       0.033435
                                                         0.099466       0.026032
                          1       7    5dyz             10.077428      -4.703164
                                                         5.847736      -6.963952
                                                         2.494033      -2.420661
                                                         0.988355      -0.131883
                                                         0.344978       0.057911
                                                         0.099466       0.045088
                          1       7    5dz2             10.077428      -2.715373
                                                         5.847736      -4.020640
                                                         2.494033      -1.397569
                                                         0.988355      -0.076143
                                                         0.344978       0.033435
                                                         0.099466       0.026032

                          1       8    5fx3             10.077428      -0.467694
                                                         5.847736       0.618100
                                                         2.494033       0.066069
                                                         0.988355       0.262898
                                                         0.344978       0.004720
                                                         0.099466       0.007748
                          1       8    5fx2y            10.077428      -1.045795
                                                         5.847736       1.382114
                                                         2.494033       0.147734
                                                         0.988355       0.587859
                                                         0.344978       0.010555
                                                         0.099466       0.017325
                          1       8    5fx2z            10.077428      -1.045795
                                                         5.847736       1.382114
                                                         2.494033       0.147734
                                                         0.988355       0.587859
                                                         0.344978       0.010555
                                                         0.099466       0.017325
                          1       8    5fxy2            10.077428      -1.045795
                                                         5.847736       1.382114
                                                         2.494033       0.147734
                                                         0.988355       0.587859
                                                         0.344978       0.010555
                                                         0.099466       0.017325
                          1       8    5fxyz            10.077428      -1.811371
                                                         5.847736       2.393892
                                                         2.494033       0.255883
                                                         0.988355       1.018201
                                                         0.344978       0.018282
                                                         0.099466       0.030008
                          1       8    5fxz2            10.077428      -1.045795
                                                         5.847736       1.382114
                                                         2.494033       0.147734
                                                         0.988355       0.587859
                                                         0.344978       0.010555
                                                         0.099466       0.017325
                          1       8    5fy3             10.077428      -0.467694
                                                         5.847736       0.618100
                                                         2.494033       0.066069
                                                         0.988355       0.262898
                                                         0.344978       0.004720
                                                         0.099466       0.007748
                          1       8    5fy2z            10.077428      -1.045795
                                                         5.847736       1.382114
                                                         2.494033       0.147734
                                                         0.988355       0.587859
                                                         0.344978       0.010555
                                                         0.099466       0.017325
                          1       8    5fyz2            10.077428      -1.045795
                                                         5.847736       1.382114
                                                         2.494033       0.147734
                                                         0.988355       0.587859
                                                         0.344978       0.010555
                                                         0.099466       0.017325
                          1       8    5fz3             10.077428      -0.467694
                                                         5.847736       0.618100
                                                         2.494033       0.066069
                                                         0.988355       0.262898
                                                         0.344978       0.004720
                                                         0.099466       0.007748

       Atomic covalent radius [Angstrom]:                                  1.150

       Atomic van der Waals radius [Angstrom]:                             1.630

     GTH Potential information for                                   GTH-PBE-q18

       Description:                       Goedecker-Teter-Hutter pseudopotential
                                           Goedecker et al., PRB 54, 1703 (1996)
                                          Hartwigsen et al., PRB 58, 3641 (1998)
                                                      Krack, TCA 114, 145 (2005)

       Gaussian exponent of the core charge distribution:               4.081633
       Electronic configuration (s p d ...):                           4   6   8

       Parameters of the local part of the GTH pseudopotential:

                          rloc        C1          C2          C3          C4
                        0.350000    2.102166    0.648484

       Parameters of the non-local part of the GTH pseudopotential:

                   l      r(l)      h(i,j,l)

                   0    0.261295    0.622658    9.970227
                                    9.970227  -12.871507
                   1    0.224253  -11.142708   12.429566
                                   12.429566  -14.706861
                   2    0.215348  -12.628146

  2. Atomic kind: Ni_b                                  Number of atoms:      16

     Orbital Basis Set                                        DZVP-MOLOPT-SR-GTH

       Number of orbital shell sets:                                           1
       Number of orbital shells:                                               8
       Number of primitive Cartesian functions:                                6
       Number of Cartesian basis functions:                                   31
       Number of spherical basis functions:                                   26
       Norm type:                                                              2

       Normalised Cartesian orbitals:

                        Set   Shell   Orbital            Exponent    Coefficient

                          1       1    2s               10.077428      -0.684558
                                                         5.847736      -0.844524
                                                         2.494033       1.088856
                                                         0.988355       0.395503
                                                         0.344978       0.010224
                                                         0.099466      -0.003250

                          1       2    3s               10.077428       0.096747
                                                         5.847736       0.162504
                                                         2.494033      -0.297192
                                                         0.988355      -0.319752
                                                         0.344978       0.088318
                                                         0.099466       0.118587

                          1       3    4s               10.077428       0.036437
                                                         5.847736      -0.381480
                                                         2.494033       0.003759
                                                         0.988355      -1.048256
                                                         0.344978       0.855825
                                                         0.099466      -0.176350

                          1       4    3px              10.077428      -3.133913
                                                         5.847736       3.027656
                                                         2.494033       2.353227
                                                         0.988355       0.554184
                                                         0.344978       0.019462
                                                         0.099466      -0.000291
                          1       4    3py              10.077428      -3.133913
                                                         5.847736       3.027656
                                                         2.494033       2.353227
                                                         0.988355       0.554184
                                                         0.344978       0.019462
                                                         0.099466      -0.000291
                          1       4    3pz              10.077428      -3.133913
                                                         5.847736       3.027656
                                                         2.494033       2.353227
                                                         0.988355       0.554184
                                                         0.344978       0.019462
                                                         0.099466      -0.000291

                          1       5    4px              10.077428      -0.112729
                                                         5.847736      -0.114008
                                                         2.494033      -0.347303
                                                         0.988355      -0.110323
                                                         0.344978       0.154096
                                                         0.099466       0.058386
                          1       5    4py              10.077428      -0.112729
                                                         5.847736      -0.114008
                                                         2.494033      -0.347303
                                                         0.988355      -0.110323
                                                         0.344978       0.154096
                                                         0.099466       0.058386
                          1       5    4pz              10.077428      -0.112729
                                                         5.847736      -0.114008
                                                         2.494033      -0.347303
                                                         0.988355      -0.110323
                                                         0.344978       0.154096
                                                         0.099466       0.058386

                          1       6    4dx2             10.077428       8.232726
                                                         5.847736       9.105758
                                                         2.494033       2.849835
                                                         0.988355       0.554319
                                                         0.344978       0.067245
                                                         0.099466       0.001940
                          1       6    4dxy             10.077428      14.259500
                                                         5.847736      15.771636
                                                         2.494033       4.936060
                                                         0.988355       0.960109
                                                         0.344978       0.116472
                                                         0.099466       0.003360
                          1       6    4dxz             10.077428      14.259500
                                                         5.847736      15.771636
                                                         2.494033       4.936060
                                                         0.988355       0.960109
                                                         0.344978       0.116472
                                                         0.099466       0.003360
                          1       6    4dy2             10.077428       8.232726
                                                         5.847736       9.105758
                                                         2.494033       2.849835
                                                         0.988355       0.554319
                                                         0.344978       0.067245
                                                         0.099466       0.001940
                          1       6    4dyz             10.077428      14.259500
                                                         5.847736      15.771636
                                                         2.494033       4.936060
                                                         0.988355       0.960109
                                                         0.344978       0.116472
                                                         0.099466       0.003360
                          1       6    4dz2             10.077428       8.232726
                                                         5.847736       9.105758
                                                         2.494033       2.849835
                                                         0.988355       0.554319
                                                         0.344978       0.067245
                                                         0.099466       0.001940

                          1       7    5dx2             10.077428      -2.715373
                                                         5.847736      -4.020640
                                                         2.494033      -1.397569
                                                         0.988355      -0.076143
                                                         0.344978       0.033435
                                                         0.099466       0.026032
                          1       7    5dxy             10.077428      -4.703164
                                                         5.847736      -6.963952
                                                         2.494033      -2.420661
                                                         0.988355      -0.131883
                                                         0.344978       0.057911
                                                         0.099466       0.045088
                          1       7    5dxz             10.077428      -4.703164
                                                         5.847736      -6.963952
                                                         2.494033      -2.420661
                                                         0.988355      -0.131883
                                                         0.344978       0.057911
                                                         0.099466       0.045088
                          1       7    5dy2             10.077428      -2.715373
                                                         5.847736      -4.020640
                                                         2.494033      -1.397569
                                                         0.988355      -0.076143
                                                         0.344978       0.033435
                                                         0.099466       0.026032
                          1       7    5dyz             10.077428      -4.703164
                                                         5.847736      -6.963952
                                                         2.494033      -2.420661
                                                         0.988355      -0.131883
                                                         0.344978       0.057911
                                                         0.099466       0.045088
                          1       7    5dz2             10.077428      -2.715373
                                                         5.847736      -4.020640
                                                         2.494033      -1.397569
                                                         0.988355      -0.076143
                                                         0.344978       0.033435
                                                         0.099466       0.026032

                          1       8    5fx3             10.077428      -0.467694
                                                         5.847736       0.618100
                                                         2.494033       0.066069
                                                         0.988355       0.262898
                                                         0.344978       0.004720
                                                         0.099466       0.007748
                          1       8    5fx2y            10.077428      -1.045795
                                                         5.847736       1.382114
                                                         2.494033       0.147734
                                                         0.988355       0.587859
                                                         0.344978       0.010555
                                                         0.099466       0.017325
                          1       8    5fx2z            10.077428      -1.045795
                                                         5.847736       1.382114
                                                         2.494033       0.147734
                                                         0.988355       0.587859
                                                         0.344978       0.010555
                                                         0.099466       0.017325
                          1       8    5fxy2            10.077428      -1.045795
                                                         5.847736       1.382114
                                                         2.494033       0.147734
                                                         0.988355       0.587859
                                                         0.344978       0.010555
                                                         0.099466       0.017325
                          1       8    5fxyz            10.077428      -1.811371
                                                         5.847736       2.393892
                                                         2.494033       0.255883
                                                         0.988355       1.018201
                                                         0.344978       0.018282
                                                         0.099466       0.030008
                          1       8    5fxz2            10.077428      -1.045795
                                                         5.847736       1.382114
                                                         2.494033       0.147734
                                                         0.988355       0.587859
                                                         0.344978       0.010555
                                                         0.099466       0.017325
                          1       8    5fy3             10.077428      -0.467694
                                                         5.847736       0.618100
                                                         2.494033       0.066069
                                                         0.988355       0.262898
                                                         0.344978       0.004720
                                                         0.099466       0.007748
                          1       8    5fy2z            10.077428      -1.045795
                                                         5.847736       1.382114
                                                         2.494033       0.147734
                                                         0.988355       0.587859
                                                         0.344978       0.010555
                                                         0.099466       0.017325
                          1       8    5fyz2            10.077428      -1.045795
                                                         5.847736       1.382114
                                                         2.494033       0.147734
                                                         0.988355       0.587859
                                                         0.344978       0.010555
                                                         0.099466       0.017325
                          1       8    5fz3             10.077428      -0.467694
                                                         5.847736       0.618100
                                                         2.494033       0.066069
                                                         0.988355       0.262898
                                                         0.344978       0.004720
                                                         0.099466       0.007748

       Atomic covalent radius [Angstrom]:                                  1.150

       Atomic van der Waals radius [Angstrom]:                             1.630

     GTH Potential information for                                   GTH-PBE-q18

       Description:                       Goedecker-Teter-Hutter pseudopotential
                                           Goedecker et al., PRB 54, 1703 (1996)
                                          Hartwigsen et al., PRB 58, 3641 (1998)
                                                      Krack, TCA 114, 145 (2005)

       Gaussian exponent of the core charge distribution:               4.081633
       Electronic configuration (s p d ...):                           4   6   8

       Parameters of the local part of the GTH pseudopotential:

                          rloc        C1          C2          C3          C4
                        0.350000    2.102166    0.648484

       Parameters of the non-local part of the GTH pseudopotential:

                   l      r(l)      h(i,j,l)

                   0    0.261295    0.622658    9.970227
                                    9.970227  -12.871507
                   1    0.224253  -11.142708   12.429566
                                   12.429566  -14.706861
                   2    0.215348  -12.628146


 MOLECULE KIND INFORMATION


 All atoms are their own molecule, skipping detailed information


 TOTAL NUMBERS AND MAXIMUM NUMBERS

  Total number of            - Atomic kinds:                                   2
                             - Atoms:                                         32
                             - Shell sets:                                    32
                             - Shells:                                       256
                             - Primitive Cartesian functions:                192
                             - Cartesian basis functions:                    992
                             - Spherical basis functions:                    832

  Maximum angular momentum of- Orbital basis functions:                        3
                             - Local part of the GTH pseudopotential:          2
                             - Non-local part of the GTH pseudopotential:      3


 MODULE QUICKSTEP: ATOMIC COORDINATES IN ANGSTROM

   Atom Kind Element         X             Y             Z       Z(eff)     Mass
      1    1 Ni   28      0.876298      0.876298      7.370500  18.0000  58.6934
      2    1 Ni   28      0.876298      4.382298      7.370500  18.0000  58.6934
      3    1 Ni   28      2.629298      2.629298      7.370500  18.0000  58.6934
      4    1 Ni   28      2.629298      6.135298      7.370500  18.0000  58.6934
      5    1 Ni   28      4.382298      0.876298      7.370500  18.0000  58.6934
      6    1 Ni   28      4.382298      4.382298      7.370500  18.0000  58.6934
      7    1 Ni   28      6.135298      2.629298      7.370500  18.0000  58.6934
      8    1 Ni   28      6.135298      6.135298      7.370500  18.0000  58.6934
      9    2 Ni   28      0.876298      2.629298      9.123500  18.0000  58.6934
     10    2 Ni   28      0.876298      6.135298      9.123500  18.0000  58.6934
     11    2 Ni   28      2.629298      0.876298      9.123500  18.0000  58.6934
     12    2 Ni   28      2.629298      4.382298      9.123500  18.0000  58.6934
     13    2 Ni   28      4.382298      2.629298      9.123500  18.0000  58.6934
     14    2 Ni   28      4.382298      6.135298      9.123500  18.0000  58.6934
     15    2 Ni   28      6.135298      0.876298      9.123500  18.0000  58.6934
     16    2 Ni   28      6.135298      4.382298      9.123500  18.0000  58.6934
     17    2 Ni   28      0.876298      0.876298     10.876500  18.0000  58.6934
     18    2 Ni   28      0.876298      4.382298     10.876500  18.0000  58.6934
     19    2 Ni   28      2.629298      2.629298     10.876500  18.0000  58.6934
     20    2 Ni   28      2.629298      6.135298     10.876500  18.0000  58.6934
     21    2 Ni   28      4.382298      0.876298     10.876500  18.0000  58.6934
     22    2 Ni   28      4.382298      4.382298     10.876500  18.0000  58.6934
     23    2 Ni   28      6.135298      2.629298     10.876500  18.0000  58.6934
     24    2 Ni   28      6.135298      6.135298     10.876500  18.0000  58.6934
     25    1 Ni   28      0.876298      2.629298     12.629500  18.0000  58.6934
     26    1 Ni   28      0.876298      6.135298     12.629500  18.0000  58.6934
     27    1 Ni   28      2.629298      0.876298     12.629500  18.0000  58.6934
     28    1 Ni   28      2.629298      4.382298     12.629500  18.0000  58.6934
     29    1 Ni   28      4.382298      2.629298     12.629500  18.0000  58.6934
     30    1 Ni   28      4.382298      6.135298     12.629500  18.0000  58.6934
     31    1 Ni   28      6.135298      0.876298     12.629500  18.0000  58.6934
     32    1 Ni   28      6.135298      4.382298     12.629500  18.0000  58.6934



 SCF PARAMETERS         Density guess:                                    ATOMIC
                        --------------------------------------------------------
                        max_scf:                                             500
                        max_scf_history:                                       0
                        max_diis:                                              4
                        --------------------------------------------------------
                        eps_scf:                                        1.00E-04
                        eps_scf_history:                                0.00E+00
                        eps_diis:                                       1.00E-01
                        eps_eigval:                                     1.00E-05
                        --------------------------------------------------------
                        level_shift [a.u.]:                             0.000000
                        added MOs                                       531  556
                        --------------------------------------------------------
                        Mixing method:                            BROYDEN_MIXING
                                                charge density mixing in g-space
                        --------------------------------------------------------
                        Smear method:                                FERMI_DIRAC
                        Electronic temperature [K]:                       2000.0
                        Electronic temperature [a.u.]:                  6.33E-03
                        Accuracy threshold:                             1.00E-10
                        --------------------------------------------------------
                        No outer SCF

 PW_GRID| Information for grid number                                          1
 PW_GRID| Grid distributed over                                   128 processors
 PW_GRID| Real space group dimensions                                     8   16
 PW_GRID| the grid is blocked:                                               YES
 PW_GRID| Cutoff [a.u.]                                                    300.0
 PW_GRID| spherical cutoff:                                                   NO
 PW_GRID|   Bounds   1            -54      53                Points:         108
 PW_GRID|   Bounds   2            -54      53                Points:         108
 PW_GRID|   Bounds   3           -150     149                Points:         300
 PW_GRID| Volume element (a.u.^3)  0.1896E-02     Volume (a.u.^3)      6635.2971
 PW_GRID| Grid span                                                    FULLSPACE
 PW_GRID|   Distribution                         Average         Max         Min
 PW_GRID|   G-Vectors                            27337.5       28728       25272
 PW_GRID|   G-Rays                                 253.1         266         234
 PW_GRID|   Real Space Points                    27337.5       28728       25272

 PW_GRID| Information for grid number                                          2
 PW_GRID| Number of the reference grid                                         1
 PW_GRID| Grid distributed over                                   128 processors
 PW_GRID| Real space group dimensions                                     8   16
 PW_GRID| the grid is blocked:                                                NO
 PW_GRID| Cutoff [a.u.]                                                    100.0
 PW_GRID| spherical cutoff:                                                   NO
 PW_GRID|   Bounds   1            -30      29                Points:          60
 PW_GRID|   Bounds   2            -30      29                Points:          60
 PW_GRID|   Bounds   3            -90      89                Points:         180
 PW_GRID| Volume element (a.u.^3)  0.1024E-01     Volume (a.u.^3)      6635.2971
 PW_GRID| Grid span                                                    FULLSPACE
 PW_GRID|   Distribution                         Average         Max         Min
 PW_GRID|   G-Vectors                             5062.5       15960           0
 PW_GRID|   G-Rays                                  84.4         266           0
 PW_GRID|   Real Space Points                     5062.5        5760        3780

 PW_GRID| Information for grid number                                          3
 PW_GRID| Number of the reference grid                                         1
 PW_GRID| Grid distributed over                                   128 processors
 PW_GRID| Real space group dimensions                                     8   16
 PW_GRID| the grid is blocked:                                                NO
 PW_GRID| Cutoff [a.u.]                                                     33.3
 PW_GRID| spherical cutoff:                                                   NO
 PW_GRID|   Bounds   1            -18      17                Points:          36
 PW_GRID|   Bounds   2            -18      17                Points:          36
 PW_GRID|   Bounds   3            -50      49                Points:         100
 PW_GRID| Volume element (a.u.^3)  0.5120E-01     Volume (a.u.^3)      6635.2971
 PW_GRID| Grid span                                                    FULLSPACE
 PW_GRID|   Distribution                         Average         Max         Min
 PW_GRID|   G-Vectors                             1012.5        9576           0
 PW_GRID|   G-Rays                                  28.1         266           0
 PW_GRID|   Real Space Points                     1012.5        1500         800

 PW_GRID| Information for grid number                                          4
 PW_GRID| Number of the reference grid                                         1
 PW_GRID| Grid distributed over                                   128 processors
 PW_GRID| Real space group dimensions                                     8   16
 PW_GRID| the grid is blocked:                                                NO
 PW_GRID| Cutoff [a.u.]                                                     11.1
 PW_GRID| spherical cutoff:                                                   NO
 PW_GRID|   Bounds   1            -10       9                Points:          20
 PW_GRID|   Bounds   2            -10       9                Points:          20
 PW_GRID|   Bounds   3            -30      29                Points:          60
 PW_GRID| Volume element (a.u.^3)  0.2765         Volume (a.u.^3)      6635.2971
 PW_GRID| Grid span                                                    FULLSPACE
 PW_GRID|   Distribution                         Average         Max         Min
 PW_GRID|   G-Vectors                              187.5        3800           0
 PW_GRID|   G-Rays                                   9.4         190           0
 PW_GRID|   Real Space Points                      187.5         360         120

 PW_GRID| Information for grid number                                          5
 PW_GRID| Number of the reference grid                                         1
 PW_GRID| Grid distributed over                                   128 processors
 PW_GRID| Real space group dimensions                                     8   16
 PW_GRID| the grid is blocked:                                                NO
 PW_GRID| Cutoff [a.u.]                                                      3.7
 PW_GRID| spherical cutoff:                                                   NO
 PW_GRID|   Bounds   1             -6       5                Points:          12
 PW_GRID|   Bounds   2             -6       5                Points:          12
 PW_GRID|   Bounds   3            -18      17                Points:          36
 PW_GRID| Volume element (a.u.^3)   1.280         Volume (a.u.^3)      6635.2971
 PW_GRID| Grid span                                                    FULLSPACE
 PW_GRID|   Distribution                         Average         Max         Min
 PW_GRID|   G-Vectors                               40.5        1296           0
 PW_GRID|   G-Rays                                   3.4         108           0
 PW_GRID|   Real Space Points                       40.5          72           0

 POISSON| Solver                                                        PERIODIC
 POISSON| Periodicity                                                        XYZ

 RS_GRID| Information for grid number                                          1
 RS_GRID|   Bounds   1            -54      53                Points:         108
 RS_GRID|   Bounds   2            -54      53                Points:         108
 RS_GRID|   Bounds   3           -150     149                Points:         300
 RS_GRID| Real space distribution over                                  8 groups
 RS_GRID| Real space distribution along direction                              2
 RS_GRID| Border size                                                         28
 RS_GRID| Real space distribution over                                 16 groups
 RS_GRID| Real space distribution along direction                              3
 RS_GRID| Border size                                                         28
 RS_GRID|   Distribution                         Average         Max         Min
 RS_GRID|   Planes                                  69.5          70          69
 RS_GRID|   Distribution                         Average         Max         Min
 RS_GRID|   Planes                                  74.8          75          74

 RS_GRID| Information for grid number                                          2
 RS_GRID|   Bounds   1            -30      29                Points:          60
 RS_GRID|   Bounds   2            -30      29                Points:          60
 RS_GRID|   Bounds   3            -90      89                Points:         180
 RS_GRID| Real space fully replicated
 RS_GRID| Group size                                                           1

 RS_GRID| Information for grid number                                          3
 RS_GRID|   Bounds   1            -18      17                Points:          36
 RS_GRID|   Bounds   2            -18      17                Points:          36
 RS_GRID|   Bounds   3            -50      49                Points:         100
 RS_GRID| Real space fully replicated
 RS_GRID| Group size                                                           1

 RS_GRID| Information for grid number                                          4
 RS_GRID|   Bounds   1            -10       9                Points:          20
 RS_GRID|   Bounds   2            -10       9                Points:          20
 RS_GRID|   Bounds   3            -30      29                Points:          60
 RS_GRID| Real space fully replicated
 RS_GRID| Group size                                                           1

 RS_GRID| Information for grid number                                          5
 RS_GRID|   Bounds   1             -6       5                Points:          12
 RS_GRID|   Bounds   2             -6       5                Points:          12
 RS_GRID|   Bounds   3            -18      17                Points:          36
 RS_GRID| Real space fully replicated
 RS_GRID| Group size                                                           1

 Spin 1

 Number of electrons:                                                        300.240
 Number of occupied orbitals:                                                301
 Number of molecular orbitals:                                               832

 Spin 2

 Number of electrons:                                                        275.760
 Number of occupied orbitals:                                                276
 Number of molecular orbitals:                                               832

 Number of orbital functions:                                                832
 Number of independent orbital functions:                                    832

 Extrapolation method: initial_guess

 Atomic guess: The first density matrix is obtained in terms of atomic orbitals
               and electronic configurations assigned to each atomic kind

 Guess for atomic kind: Ni_i

 Electronic structure
    Total number of core electrons                                         10.00
    Total number of valence electrons                                      18.00
    Total number of electrons                                              28.00
    Multiplicity                                                         doublet
    Alpha Electrons
    S   [  1.00  1.00] 1.00  1.00
    P   [  3.00] 3.00
    D      4.40
    Beta Electrons
    S   [  1.00  1.00] 1.00  1.00
    P   [  3.00] 3.00
    D      3.60


 *******************************************************************************
                  Iteration          Convergence                     Energy [au]
 *******************************************************************************
                          1         1.51750                    -167.068932204718
                          2         15.5935                    -156.656530566819
                          3         2.37322                    -168.320625176021
                          4        0.215236                    -168.611142488999
                          5        0.864690E-01                -168.614185977773
                          6        0.204270E-01                -168.614864366588
                          7        0.117629E-02                -168.614962284536
                          8        0.143499E-02                -168.614962241165
                          9        0.165550E-03                -168.614962454733
                         10        0.801651E-03                -168.614962414936
                         11        0.526340E-03                -168.614962440154
                         12        0.114214E-03                -168.614962458210
                         13        0.974554E-04                -168.614962459061
                         14        0.103837E-03                -168.614962459937
                         15        0.922182E-04                -168.614962460311
                         16        0.489415E-04                -168.614962460739
                         17        0.376531E-04                -168.614962461148
                         18        0.319337E-04                -168.614962461185
                         19        0.537275E-04                -168.614962461068
                         20        0.409549E-04                -168.614962461145
                         21        0.226152E-04                -168.614962461237
                         22        0.174462E-04                -168.614962461257
                         23        0.165586E-04                -168.614962461260
                         24        0.160650E-04                -168.614962461262
                         25        0.113583E-04                -168.614962461280
                         26        0.503754E-05                -168.614962461287
                         27        0.239088E-05                -168.614962461289
                         28        0.206656E-05                -168.614962461289
                         29        0.678810E-06                -168.614962461289

 Energy components [Hartree]           Total Energy ::         -168.614962461289
                                        Band Energy ::          -26.570438398031
                                     Kinetic Energy ::           97.308645535822
                                   Potential Energy ::         -265.923607997111
                                      Virial (-V/T) ::            2.732785011371
                                        Core Energy ::         -299.569105195415
                                          XC Energy ::          -16.228812263913
                                     Coulomb Energy ::          147.182954998038
                       Total Pseudopotential Energy ::         -396.964091881334
                       Local Pseudopotential Energy ::         -362.650332264705
                    Nonlocal Pseudopotential Energy ::          -34.313759616629
                                        Confinement ::            0.863411500974

 Orbital energies  State     Spin  L     Occupation   Energy[a.u.]    Energy[eV]

                       1    alpha  0          1.000      -4.174802   -113.602130
                       2    alpha  0          1.000      -0.181779     -4.946449
                       1     beta  0          1.000      -4.138200   -112.606137
                       2     beta  0          1.000      -0.175997     -4.789129

                       1    alpha  1          3.000      -2.580817    -70.227599
                       1     beta  1          3.000      -2.545205    -69.258560

                       1    alpha  2          4.400      -0.328813     -8.947444
                       1     beta  2          3.600      -0.298561     -8.124256


 Total Electron Density at R=0:                                         0.030417

 Guess for atomic kind: Ni_b

 Electronic structure
    Total number of core electrons                                         10.00
    Total number of valence electrons                                      18.00
    Total number of electrons                                              28.00
    Multiplicity                                                         doublet
    Alpha Electrons
    S   [  1.00  1.00] 1.00  1.00
    P   [  3.00] 3.00
    D      4.37
    Beta Electrons
    S   [  1.00  1.00] 1.00  1.00
    P   [  3.00] 3.00
    D      3.63


 *******************************************************************************
                  Iteration          Convergence                     Energy [au]
 *******************************************************************************
                          1         1.51735                    -167.067855785184
                          2         15.4513                    -156.646623956936
                          3         2.34603                    -168.319719083906
                          4        0.209300                    -168.610258874672
                          5        0.829492E-01                -168.613248525605
                          6        0.182505E-01                -168.613868980996
                          7        0.237184E-02                -168.613949385360
                          8        0.264111E-02                -168.613949244092
                          9        0.494518E-04                -168.613949973551
                         10        0.146830E-02                -168.613949825392
                         11        0.571724E-03                -168.613949944930
                         12        0.151061E-03                -168.613949968573
                         13        0.118414E-03                -168.613949970294
                         14        0.131702E-03                -168.613949971875
                         15        0.144085E-03                -168.613949971320
                         16        0.274985E-03                -168.613949966743
                         17        0.689030E-04                -168.613949973010
                         18        0.746854E-04                -168.613949973269
                         19        0.772725E-04                -168.613949973355
                         20        0.788159E-04                -168.613949973346
                         21        0.751163E-04                -168.613949973392
                         22        0.429370E-04                -168.613949973698
                         23        0.356167E-04                -168.613949973755
                         24        0.327355E-04                -168.613949973772
                         25        0.321833E-04                -168.613949973775
                         26        0.319446E-04                -168.613949973776
                         27        0.270237E-04                -168.613949973817
                         28        0.151142E-04                -168.613949973867
                         29        0.151435E-04                -168.613949973867
                         30        0.151349E-04                -168.613949973867
                         31        0.150412E-04                -168.613949973867
                         32        0.128883E-04                -168.613949973872
                         33        0.226604E-05                -168.613949973886
                         34        0.187507E-05                -168.613949973886
                         35        0.204024E-05                -168.613949973886
                         36        0.210120E-05                -168.613949973886
                         37        0.255894E-05                -168.613949973886
                         38        0.123061E-05                -168.613949973886
                         39        0.103702E-05                -168.613949973886
                         40        0.690443E-06                -168.613949973886

 Energy components [Hartree]           Total Energy ::         -168.613949973886
                                        Band Energy ::          -26.569956045618
                                     Kinetic Energy ::           97.307273351863
                                   Potential Energy ::         -265.921223325749
                                      Virial (-V/T) ::            2.732799041282
                                        Core Energy ::         -299.568301415782
                                          XC Energy ::          -16.227653317944
                                     Coulomb Energy ::          147.182004759840
                       Total Pseudopotential Energy ::         -396.961915778154
                       Local Pseudopotential Energy ::         -362.648875252544
                    Nonlocal Pseudopotential Energy ::          -34.313040525610
                                        Confinement ::            0.863410105096

 Orbital energies  State     Spin  L     Occupation   Energy[a.u.]    Energy[eV]

                       1    alpha  0          1.000      -4.173309   -113.561518
                       2    alpha  0          1.000      -0.181535     -4.939828
                       1     beta  0          1.000      -4.139910   -112.652680
                       2     beta  0          1.000      -0.176260     -4.796281

                       1    alpha  1          3.000      -2.579365    -70.188082
                       1     beta  1          3.000      -2.546869    -69.303840

                       1    alpha  2          4.365      -0.327573     -8.913712
                       1     beta  2          3.635      -0.299968     -8.162544


 Total Electron Density at R=0:                                         0.030420

 Spin 1
 Re-scaling the density matrix to get the right number of electrons for spin 1
                  # Electrons              Trace(P)               Scaling factor
                        300.240             300.240                        1.000

 Spin 2
 Re-scaling the density matrix to get the right number of electrons for spin 2
                  # Electrons              Trace(P)               Scaling factor
                        275.760             275.760                        1.000


 SCF WAVEFUNCTION OPTIMIZATION

[...]
   110 Broy./Diag. 0.80E-01    1.5     0.00098878     -5417.6689015209  1.33E-01
   111 Broy./Diag. 0.80E-01    1.5     0.00515423     -5417.7085417846 -3.96E-02
   112 Broy./Diag. 0.80E-01    1.5     0.01115209     -5417.7010366846  7.51E-03
   113 Broy./Diag. 0.80E-01    1.5     0.01381210     -5417.3476653015  3.53E-01
   114 Broy./Diag. 0.80E-01    1.5     0.00164834     -5417.7162844170 -3.69E-01
   115 Broy./Diag. 0.80E-01    1.5     0.00352352     -5417.7173476994 -1.06E-03
   116 Broy./Diag. 0.80E-01    1.5     0.00088611     -5417.7340927818 -1.67E-02
   117 Broy./Diag. 0.80E-01    1.5     0.00296877     -5417.7212603359  1.28E-02
   118 Broy./Diag. 0.80E-01    1.5     0.00246000     -5417.7098229592  1.14E-02
   119 Broy./Diag. 0.80E-01    1.5     0.00797711     -5417.6428950899  6.69E-02
   120 Broy./Diag. 0.80E-01    1.5     0.00702602     -5417.7718449840 -1.29E-01
   121 Broy./Diag. 0.80E-01    1.5     0.00356559     -5417.8481600583 -7.63E-02
   122 Broy./Diag. 0.80E-01    1.5     0.00309775     -5417.6769372590  1.71E-01
   123 Broy./Diag. 0.80E-01    1.5     0.00227632     -5417.5864104927  9.05E-02
   124 Broy./Diag. 0.80E-01    1.5     0.00849892     -5417.4941625564  9.22E-02
   125 Broy./Diag. 0.80E-01    1.5     0.00152282     -5417.3847161907  1.09E-01
   126 Broy./Diag. 0.80E-01    1.5     0.00140257     -5417.3993127143 -1.46E-02
   127 Broy./Diag. 0.80E-01    1.5     0.00573778     -5417.4426360031 -4.33E-02
   128 Broy./Diag. 0.80E-01    1.5     0.00325148     -5417.4646225101 -2.20E-02
   129 Broy./Diag. 0.80E-01    1.5     0.00693402     -5417.5343961410 -6.98E-02
   130 Broy./Diag. 0.80E-01    1.5     0.00442881     -5417.4866371352  4.78E-02
   131 Broy./Diag. 0.80E-01    1.5     0.00765542     -5417.4437515053  4.29E-02
   132 Broy./Diag. 0.80E-01    1.5     0.00515763     -5417.6894601649 -2.46E-01
   133 Broy./Diag. 0.80E-01    1.5     0.00533766     -5417.4800003350  2.09E-01
   134 Broy./Diag. 0.80E-01    1.5     0.00254179     -5417.3756259357  1.04E-01
   135 Broy./Diag. 0.80E-01    1.5     0.00564696     -5416.9610313520  4.15E-01
   136 Broy./Diag. 0.80E-01    1.5     0.00339035     -5416.6329510401  3.28E-01
   137 Broy./Diag. 0.80E-01    1.5     0.00170630     -5416.5165615889  1.16E-01
   138 Broy./Diag. 0.80E-01    1.5     0.01139321     -5416.6602510444 -1.44E-01
   139 Broy./Diag. 0.80E-01    1.5     0.00871971     -5416.9911185731 -3.31E-01
   140 Broy./Diag. 0.80E-01    1.5     0.00618020     -5416.7228858118  2.68E-01
   141 Broy./Diag. 0.80E-01    1.5     0.00841558     -5416.9967711362 -2.74E-01
   142 Broy./Diag. 0.80E-01    1.5     0.00196340     -5417.2780859383 -2.81E-01
   143 Broy./Diag. 0.80E-01    1.5     0.00427264     -5417.3479963519 -6.99E-02
   144 Broy./Diag. 0.80E-01    1.5     0.00398727     -5417.3523646436 -4.37E-03
   145 Broy./Diag. 0.80E-01    1.5     0.00136729     -5417.4895027238 -1.37E-01
   146 Broy./Diag. 0.80E-01    1.5     0.00438465     -5417.5226445816 -3.31E-02
   147 Broy./Diag. 0.80E-01    1.5     0.00653660     -5417.3473461025  1.75E-01
   148 Broy./Diag. 0.80E-01    1.5     0.00107670     -5417.2438430224  1.04E-01
   149 Broy./Diag. 0.80E-01    1.5     0.00341154     -5417.3892969020 -1.45E-01
   150 Broy./Diag. 0.80E-01    1.5     0.01074836     -5417.0704510108  3.19E-01
   151 Broy./Diag. 0.80E-01    1.5     0.00970164     -5417.0815729254 -1.11E-02
   152 Broy./Diag. 0.80E-01    1.5     0.00662290     -5417.0739308091  7.64E-03
   153 Broy./Diag. 0.80E-01    1.5     0.00128652     -5417.0271725401  4.68E-02
   154 Broy./Diag. 0.80E-01    1.5     0.00778547     -5417.0487120059 -2.15E-02
   155 Broy./Diag. 0.80E-01    1.5     0.01312174     -5417.0808770073 -3.22E-02
   156 Broy./Diag. 0.80E-01    1.5     0.00918074     -5417.2299032659 -1.49E-01
   157 Broy./Diag. 0.80E-01    1.5     0.00825493     -5417.4324561080 -2.03E-01
   158 Broy./Diag. 0.80E-01    1.5     0.00497226     -5417.6017414323 -1.69E-01
   159 Broy./Diag. 0.80E-01    1.5     0.00255216     -5417.3432040297  2.59E-01
   160 Broy./Diag. 0.80E-01    1.5     0.01081441     -5417.3801101925 -3.69E-02
   161 Broy./Diag. 0.80E-01    1.5     0.00328065     -5417.4622716875 -8.22E-02
   162 Broy./Diag. 0.80E-01    1.5     0.00473804     -5417.4790296811 -1.68E-02
   163 Broy./Diag. 0.80E-01    1.5     0.00082509     -5417.3910307428  8.80E-02
   164 Broy./Diag. 0.80E-01    1.5     0.00281869     -5417.3975313971 -6.50E-03
   165 Broy./Diag. 0.80E-01    1.5     0.00338335     -5417.3442036847  5.33E-02
   166 Broy./Diag. 0.80E-01    1.5     0.00697346     -5417.2953607799  4.88E-02
   167 Broy./Diag. 0.80E-01    1.5     0.00783962     -5417.2389200149  5.64E-02
   168 Broy./Diag. 0.80E-01    1.5     0.00922348     -5417.8502649353 -6.11E-01
   169 Broy./Diag. 0.80E-01    1.5     0.00331921     -5417.4502046236  4.00E-01
   170 Broy./Diag. 0.80E-01    1.5     0.00100024     -5417.3244901754  1.26E-01
   171 Broy./Diag. 0.80E-01    1.5     0.00713053     -5417.2540130278  7.05E-02
   172 Broy./Diag. 0.80E-01    1.5     0.00355199     -5417.3266689484 -7.27E-02
   173 Broy./Diag. 0.80E-01    1.5     0.00843663     -5417.3028626653  2.38E-02
   174 Broy./Diag. 0.80E-01    1.5     0.00268178     -5416.9113962824  3.91E-01
   175 Broy./Diag. 0.80E-01    1.5     0.00470945     -5416.9905759107 -7.92E-02
   176 Broy./Diag. 0.80E-01    1.5     0.00669545     -5416.9345467214  5.60E-02
   177 Broy./Diag. 0.80E-01    1.5     0.00216909     -5416.7559546711  1.79E-01
   178 Broy./Diag. 0.80E-01    1.5     0.00602684     -5416.9300055043 -1.74E-01
   179 Broy./Diag. 0.80E-01    1.5     0.00277435     -5416.6858936218  2.44E-01
   180 Broy./Diag. 0.80E-01    1.5     0.00391127     -5417.0686703692 -3.83E-01
   181 Broy./Diag. 0.80E-01    1.5     0.00951177     -5417.2260026066 -1.57E-01
   182 Broy./Diag. 0.80E-01    1.5     0.02091269     -5417.2517641468 -2.58E-02
   183 Broy./Diag. 0.80E-01    1.5     0.00172977     -5417.5599751842 -3.08E-01
   184 Broy./Diag. 0.80E-01    1.5     0.00589856     -5417.6935694016 -1.34E-01
   185 Broy./Diag. 0.80E-01    1.5     0.00634859     -5417.7893315229 -9.58E-02
   186 Broy./Diag. 0.80E-01    1.5     0.00691594     -5417.7360278170  5.33E-02
   187 Broy./Diag. 0.80E-01    1.5     0.00259022     -5417.4345162514  3.02E-01
   188 Broy./Diag. 0.80E-01    1.5     0.01037917     -5417.3048847872  1.30E-01
   189 Broy./Diag. 0.80E-01    1.5     0.00410108     -5417.6601173138 -3.55E-01
   190 Broy./Diag. 0.80E-01    1.5     0.00615669     -5417.5520845776  1.08E-01
   191 Broy./Diag. 0.80E-01    1.5     0.00223169     -5417.7693664031 -2.17E-01
   192 Broy./Diag. 0.80E-01    1.5     0.01150632     -5417.5936446388  1.76E-01
   193 Broy./Diag. 0.80E-01    1.5     0.00832220     -5417.6891451125 -9.55E-02
   194 Broy./Diag. 0.80E-01    1.5     0.00229713     -5417.7171742617 -2.80E-02
   195 Broy./Diag. 0.80E-01    1.5     0.01134990     -5417.8733483728 -1.56E-01
   196 Broy./Diag. 0.80E-01    1.5     0.00453000     -5417.7682485307  1.05E-01
   197 Broy./Diag. 0.80E-01    1.5     0.00180681     -5417.8344335065 -6.62E-02
   198 Broy./Diag. 0.80E-01    1.5     0.00276979     -5417.8767638834 -4.23E-02
   199 Broy./Diag. 0.80E-01    1.5     0.00712283     -5417.7861156301  9.06E-02
   200 Broy./Diag. 0.80E-01    1.5     0.01498958     -5417.6804663441  1.06E-01
   201 Broy./Diag. 0.80E-01    1.5     0.00767978     -5417.6995020803 -1.90E-02
   202 Broy./Diag. 0.80E-01    1.5     0.02571219     -5417.8779073462 -1.78E-01
   203 Broy./Diag. 0.80E-01    1.5     0.00266719     -5417.5236151303  3.54E-01
   204 Broy./Diag. 0.80E-01    1.5     0.01247719     -5417.6389160154 -1.15E-01
   205 Broy./Diag. 0.80E-01    1.5     0.00319245     -5417.7835448493 -1.45E-01
   206 Broy./Diag. 0.80E-01    1.5     0.00142316     -5417.7898751210 -6.33E-03
   207 Broy./Diag. 0.80E-01    1.5     0.00587833     -5417.7264830737  6.34E-02
   208 Broy./Diag. 0.80E-01    1.5     0.00632248     -5417.8194782365 -9.30E-02
   209 Broy./Diag. 0.80E-01    1.5     0.00188193     -5417.7453680318  7.41E-02
   210 Broy./Diag. 0.80E-01    1.5     0.04334065     -5417.7690070486 -2.36E-02
   211 Broy./Diag. 0.80E-01    1.5     0.00615033     -5418.0156890039 -2.47E-01
   212 Broy./Diag. 0.80E-01    1.5     0.00522501     -5418.0368857625 -2.12E-02
   213 Broy./Diag. 0.80E-01    1.5     0.00955782     -5417.9836791481  5.32E-02
   214 Broy./Diag. 0.80E-01    1.5     0.00393183     -5418.1012768341 -1.18E-01
   215 Broy./Diag. 0.80E-01    1.5     0.00789254     -5418.1337170185 -3.24E-02
   216 Broy./Diag. 0.80E-01    1.5     0.00309021     -5418.1500498019 -1.63E-02
   217 Broy./Diag. 0.80E-01    1.5     0.00873371     -5418.1370350654  1.30E-02
   218 Broy./Diag. 0.80E-01    1.5     0.01406137     -5418.0662395373  7.08E-02
   219 Broy./Diag. 0.80E-01    1.5     0.00431265     -5418.0424716229  2.38E-02
   220 Broy./Diag. 0.80E-01    1.5     0.02069337     -5418.0697491941 -2.73E-02
   221 Broy./Diag. 0.80E-01    1.5     0.01139637     -5417.6117103524  4.58E-01
   222 Broy./Diag. 0.80E-01    1.5     0.00228312     -5417.8348824377 -2.23E-01
   223 Broy./Diag. 0.80E-01    1.5     0.01362056     -5417.8531675843 -1.83E-02
   224 Broy./Diag. 0.80E-01    1.5     0.01053854     -5417.8162650546  3.69E-02
   225 Broy./Diag. 0.80E-01    1.5     0.00191062     -5417.5256806981  2.91E-01
   226 Broy./Diag. 0.80E-01    1.5     0.01624712     -5417.4297446161  9.59E-02
   227 Broy./Diag. 0.80E-01    1.5     0.00384818     -5417.6488420932 -2.19E-01
   228 Broy./Diag. 0.80E-01    1.5     0.00430308     -5417.5755714513  7.33E-02
   229 Broy./Diag. 0.80E-01    1.5     0.01297796     -5417.7527030589 -1.77E-01
   230 Broy./Diag. 0.80E-01    1.5     0.00295066     -5417.9917179716 -2.39E-01
   231 Broy./Diag. 0.80E-01    1.5     0.00384360     -5418.0378439890 -4.61E-02
   232 Broy./Diag. 0.80E-01    1.5     0.00249946     -5417.9887378369  4.91E-02
   233 Broy./Diag. 0.80E-01    1.5     0.00110627     -5417.9800306056  8.71E-03
   234 Broy./Diag. 0.80E-01    1.5     0.00686237     -5417.9498452107  3.02E-02
   235 Broy./Diag. 0.80E-01    1.5     0.00155586     -5417.8648714337  8.50E-02
   236 Broy./Diag. 0.80E-01    1.5     0.01212735     -5417.9218491599 -5.70E-02
   237 Broy./Diag. 0.80E-01    1.5     0.00256199     -5418.0401649762 -1.18E-01
   238 Broy./Diag. 0.80E-01    1.5     0.00482957     -5417.8001087878  2.40E-01
   239 Broy./Diag. 0.80E-01    1.5     0.00441395     -5417.7833001787  1.68E-02
   240 Broy./Diag. 0.80E-01    1.5     0.00760773     -5417.8152151150 -3.19E-02
   241 Broy./Diag. 0.80E-01    1.5     0.00771096     -5417.3648125078  4.50E-01
   242 Broy./Diag. 0.80E-01    1.5     0.01461358     -5417.6499464077 -2.85E-01
   243 Broy./Diag. 0.80E-01    1.5     0.00169064     -5417.5569679077  9.30E-02
   244 Broy./Diag. 0.80E-01    1.5     0.00546867     -5417.5482008523  8.77E-03
   245 Broy./Diag. 0.80E-01    1.5     0.01415240     -5417.5173280378  3.09E-02
   246 Broy./Diag. 0.80E-01    1.5     0.00663759     -5417.6748703989 -1.58E-01
   247 Broy./Diag. 0.80E-01    1.5     0.00597724     -5417.4986471806  1.76E-01
   248 Broy./Diag. 0.80E-01    1.5     0.01649826     -5417.5990487654 -1.00E-01
   249 Broy./Diag. 0.80E-01    1.5     0.00576741     -5417.6213547139 -2.23E-02
   250 Broy./Diag. 0.80E-01    1.5     0.00393657     -5417.5500054736  7.13E-02
   251 Broy./Diag. 0.80E-01    1.5     0.00843678     -5417.5351087210  1.49E-02
   252 Broy./Diag. 0.80E-01    1.5     0.02497242     -5417.4972993193  3.78E-02
   253 Broy./Diag. 0.80E-01    1.5     0.03915063     -5417.8650333128 -3.68E-01
   254 Broy./Diag. 0.80E-01    1.5     0.00689746     -5417.6842717668  1.81E-01
   255 Broy./Diag. 0.80E-01    1.5     0.00422487     -5417.5727338982  1.12E-01
   256 Broy./Diag. 0.80E-01    1.5     0.00957567     -5417.6195120847 -4.68E-02
   257 Broy./Diag. 0.80E-01    1.5     0.00290332     -5417.6034419538  1.61E-02
   258 Broy./Diag. 0.80E-01    1.5     0.01469730     -5417.6379775490 -3.45E-02
   259 Broy./Diag. 0.80E-01    1.5     0.01422279     -5417.3000759557  3.38E-01
   260 Broy./Diag. 0.80E-01    1.5     0.03865716     -5417.4388565158 -1.39E-01
   261 Broy./Diag. 0.80E-01    1.5     0.01703185     -5417.8281540483 -3.89E-01
   262 Broy./Diag. 0.80E-01    1.5     0.00483242     -5417.9104988084 -8.23E-02
   263 Broy./Diag. 0.80E-01    1.5     0.00402083     -5418.0122444783 -1.02E-01
   264 Broy./Diag. 0.80E-01    1.5     0.00884962     -5417.9810224035  3.12E-02
   265 Broy./Diag. 0.80E-01    1.5     0.00482579     -5417.9815926963 -5.70E-04
   266 Broy./Diag. 0.80E-01    1.5     0.01448334     -5417.9164374927  6.52E-02
   267 Broy./Diag. 0.80E-01    1.5     0.00215091     -5418.0818650938 -1.65E-01
   268 Broy./Diag. 0.80E-01    1.5     0.00798660     -5417.9626261160  1.19E-01
   269 Broy./Diag. 0.80E-01    1.5     0.00895294     -5417.9393088154  2.33E-02
   270 Broy./Diag. 0.80E-01    1.5     0.00662047     -5417.9788496921 -3.95E-02
   271 Broy./Diag. 0.80E-01    1.5     0.00720550     -5417.8302694366  1.49E-01
   272 Broy./Diag. 0.80E-01    1.5     0.01412030     -5417.8256685206  4.60E-03
   273 Broy./Diag. 0.80E-01    1.5     0.00877235     -5417.7597601432  6.59E-02
   274 Broy./Diag. 0.80E-01    1.5     0.00323325     -5417.6941717049  6.56E-02
   275 Broy./Diag. 0.80E-01    1.5     0.00402246     -5417.6536390486  4.05E-02
   276 Broy./Diag. 0.80E-01    1.5     0.00503769     -5417.5545882577  9.91E-02
   277 Broy./Diag. 0.80E-01    1.5     0.00595300     -5417.6151374695 -6.05E-02
   278 Broy./Diag. 0.80E-01    1.5     0.00096499     -5417.4247437670  1.90E-01
   279 Broy./Diag. 0.80E-01    1.6     0.00112027     -5417.3273319551  9.74E-02
   280 Broy./Diag. 0.80E-01    1.6     0.00351569     -5417.2498088701  7.75E-02
   281 Broy./Diag. 0.80E-01    1.5     0.00251145     -5417.1601101191  8.97E-02
   282 Broy./Diag. 0.80E-01    1.5     0.00312079     -5417.6051086778 -4.45E-01
   283 Broy./Diag. 0.80E-01    1.5     0.00517912     -5417.2405529074  3.65E-01
   284 Broy./Diag. 0.80E-01    1.5     0.00334080     -5417.9645051067 -7.24E-01
   285 Broy./Diag. 0.80E-01    1.5     0.00671285     -5417.5718991366  3.93E-01
   286 Broy./Diag. 0.80E-01    1.5     0.00822399     -5417.7928238515 -2.21E-01
   287 Broy./Diag. 0.80E-01    1.5     0.00517559     -5417.3674625297  4.25E-01
   288 Broy./Diag. 0.80E-01    1.5     0.00369628     -5417.1985940255  1.69E-01
   289 Broy./Diag. 0.80E-01    1.5     0.00794994     -5417.7187241282 -5.20E-01
   290 Broy./Diag. 0.80E-01    1.5     0.00538747     -5417.2341815338  4.85E-01
   291 Broy./Diag. 0.80E-01    1.5     0.00374876     -5417.6737014007 -4.40E-01
   292 Broy./Diag. 0.80E-01    1.5     0.00676161     -5417.4087241317  2.65E-01
   293 Broy./Diag. 0.80E-01    1.5     0.00336463     -5417.5369777673 -1.28E-01
   294 Broy./Diag. 0.80E-01    1.5     0.00690021     -5417.8031191856 -2.66E-01
   295 Broy./Diag. 0.80E-01    1.5     0.00695736     -5417.7917121290  1.14E-02
   296 Broy./Diag. 0.80E-01    1.5     0.00192503     -5417.9089767988 -1.17E-01
   297 Broy./Diag. 0.80E-01    1.5     0.00254521     -5417.8868357261  2.21E-02
   298 Broy./Diag. 0.80E-01    1.5     0.02162456     -5417.8341635083  5.27E-02
   299 Broy./Diag. 0.80E-01    1.5     0.01226076     -5417.7776782067  5.65E-02
   300 Broy./Diag. 0.80E-01    1.5     0.00487812     -5417.8045458275 -2.69E-02
   301 Broy./Diag. 0.80E-01    1.5     0.00419041     -5417.7270442299  7.75E-02
   302 Broy./Diag. 0.80E-01    1.5     0.01684439     -5417.7227660779  4.28E-03
   303 Broy./Diag. 0.80E-01    1.5     0.00430357     -5417.7602920541 -3.75E-02
   304 Broy./Diag. 0.80E-01    1.5     0.00526066     -5417.7347697340  2.55E-02
   305 Broy./Diag. 0.80E-01    1.5     0.00080579     -5417.7920582228 -5.73E-02
   306 Broy./Diag. 0.80E-01    1.5     0.00419953     -5417.8059857203 -1.39E-02
   307 Broy./Diag. 0.80E-01    1.5     0.00061660     -5417.7032696530  1.03E-01
   308 Broy./Diag. 0.80E-01    1.5     0.00733262     -5417.7399322503 -3.67E-02
   309 Broy./Diag. 0.80E-01    1.5     0.00862279     -5417.7578599520 -1.79E-02
   310 Broy./Diag. 0.80E-01    1.5     0.01185790     -5417.4272376761  3.31E-01
   311 Broy./Diag. 0.80E-01    1.5     0.01391974     -5417.8481061076 -4.21E-01
   312 Broy./Diag. 0.80E-01    1.5     0.01818183     -5417.7510664087  9.70E-02
   313 Broy./Diag. 0.80E-01    1.5     0.00832550     -5417.7561865125 -5.12E-03
   314 Broy./Diag. 0.80E-01    1.5     0.02205511     -5417.7582534304 -2.07E-03
   315 Broy./Diag. 0.80E-01    1.5     0.00267598     -5417.9536186020 -1.95E-01
   316 Broy./Diag. 0.80E-01    1.5     0.00217814     -5417.9264304308  2.72E-02
   317 Broy./Diag. 0.80E-01    1.5     0.00330510     -5417.7315995183  1.95E-01
   318 Broy./Diag. 0.80E-01    1.5     0.00860401     -5417.6933462748  3.83E-02
   319 Broy./Diag. 0.80E-01    1.5     0.00779531     -5417.8284139145 -1.35E-01
   320 Broy./Diag. 0.80E-01    1.5     0.00259532     -5417.9530940319 -1.25E-01
   321 Broy./Diag. 0.80E-01    1.5     0.00771527     -5417.9876960297 -3.46E-02
   322 Broy./Diag. 0.80E-01    1.5     0.00441366     -5418.0158182474 -2.81E-02
   323 Broy./Diag. 0.80E-01    1.5     0.02847813     -5418.0770436078 -6.12E-02
   324 Broy./Diag. 0.80E-01    1.5     0.03440485     -5418.0879399809 -1.09E-02
   325 Broy./Diag. 0.80E-01    1.5     0.01880260     -5418.1022848092 -1.43E-02
   326 Broy./Diag. 0.80E-01    1.5     0.00424138     -5418.0106477987  9.16E-02
   327 Broy./Diag. 0.80E-01    1.5     0.00591097     -5418.0422902128 -3.16E-02
   328 Broy./Diag. 0.80E-01    1.5     0.00289786     -5417.9941580552  4.81E-02
   329 Broy./Diag. 0.80E-01    1.5     0.05509271     -5417.9842252087  9.93E-03
   330 Broy./Diag. 0.80E-01    1.5     0.00428940     -5417.8551979677  1.29E-01
   331 Broy./Diag. 0.80E-01    1.5     0.00450535     -5417.6960274689  1.59E-01
   332 Broy./Diag. 0.80E-01    1.5     0.00601632     -5417.8046915808 -1.09E-01
   333 Broy./Diag. 0.80E-01    1.5     0.00703097     -5417.7177657649  8.69E-02
   334 Broy./Diag. 0.80E-01    1.5     0.01508481     -5417.7525958538 -3.48E-02
   335 Broy./Diag. 0.80E-01    1.5     0.00911843     -5417.8795400532 -1.27E-01
   336 Broy./Diag. 0.80E-01    1.5     0.00417778     -5417.9912546553 -1.12E-01
   337 Broy./Diag. 0.80E-01    1.5     0.00688887     -5418.0223328560 -3.11E-02
   338 Broy./Diag. 0.80E-01    1.5     0.02906640     -5417.8865025456  1.36E-01
   339 Broy./Diag. 0.80E-01    1.5     0.00492874     -5417.8684545358  1.80E-02
   340 Broy./Diag. 0.80E-01    1.5     0.02652104     -5417.7858063199  8.26E-02
   341 Broy./Diag. 0.80E-01    1.5     0.01087449     -5417.5286257553  2.57E-01
   342 Broy./Diag. 0.80E-01    1.5     0.04816235     -5417.6187879179 -9.02E-02
   343 Broy./Diag. 0.80E-01    1.5     0.01736996     -5417.5748731380  4.39E-02
   344 Broy./Diag. 0.80E-01    1.5     0.02401433     -5417.7069407698 -1.32E-01
   345 Broy./Diag. 0.80E-01    1.5     0.00702784     -5417.7930793749 -8.61E-02
   346 Broy./Diag. 0.80E-01    1.5     0.00273017     -5417.7091162944  8.40E-02
   347 Broy./Diag. 0.80E-01    1.5     0.03293939     -5417.7004554339  8.66E-03
   348 Broy./Diag. 0.80E-01    1.5     0.01021571     -5417.7317353970 -3.13E-02
   349 Broy./Diag. 0.80E-01    1.5     0.00803361     -5417.7125817981  1.92E-02
   350 Broy./Diag. 0.80E-01    1.5     0.01113217     -5417.8195119528 -1.07E-01
   351 Broy./Diag. 0.80E-01    1.5     0.00782446     -5417.8425169550 -2.30E-02
   352 Broy./Diag. 0.80E-01    1.5     0.01682614     -5417.9190032955 -7.65E-02
   353 Broy./Diag. 0.80E-01    1.5     0.02204926     -5417.9755723784 -5.66E-02
   354 Broy./Diag. 0.80E-01    1.5     0.01428082     -5417.8823766066  9.32E-02
   355 Broy./Diag. 0.80E-01    1.5     0.01499324     -5417.9430610943 -6.07E-02
