 DBCSR| CPU Multiplication driver                                           XSMM
 DBCSR| Multrec recursion limit                                              512
 DBCSR| Multiplication stack size                                           1000
 DBCSR| Maximum elements for images                                    UNLIMITED
 DBCSR| Multiplicative factor virtual images                                   1
 DBCSR| Use multiplication densification                                       T
 DBCSR| Multiplication size stacks                                             3
 DBCSR| Number of 3D layers                                               SINGLE
 DBCSR| Use MPI memory allocation                                              T
 DBCSR| Use RMA algorithm                                                      F
 DBCSR| Use Communication thread                                               T
 DBCSR| Communication thread load                                             87


  **** **** ******  **  PROGRAM STARTED AT               2022-11-28 15:29:19.618
 ***** ** ***  *** **   PROGRAM STARTED ON                         node-c12e-004
 **    ****   ******    PROGRAM STARTED BY                               mmm1169
 ***** **    ** ** **   PROGRAM PROCESS ID                                  7817
  **** **  *******  **  PROGRAM STARTED IN /lustre/scratch/mmm1169/work/other/cp
                                           2k_forum/ni_bulk/final/slab/multiplic
                                           ity-25/optimise-alpha-scf-1e-3-rs-1e-
                                           4/folder_1E-2

 CP2K| version string:                                          CP2K version 7.1
 CP2K| source code revision number:                                  git:e635599
 CP2K| cp2kflags: libint fftw3 libxc elpa parallel mpi3 scalapack quip xsmm spgl
 CP2K|            ib
 CP2K| is freely available from                            https://www.cp2k.org/
 CP2K| Program compiled at                          Wed  8 Jan 12:34:35 GMT 2020
 CP2K| Program compiled on                                               login01
 CP2K| Program compiled for                                                local
 CP2K| Data directory path     /shared/ucl/apps/cp2k/7.1/gnu-4.9.2/cp2k-7.1/data
 CP2K| Input file name                                                 input.inp

 GLOBAL| Force Environment number                                              1
 GLOBAL| Basis set file name                                        BASIS_MOLOPT
 GLOBAL| Potential file name                                      GTH_POTENTIALS
 GLOBAL| MM Potential file name                                     MM_POTENTIAL
 GLOBAL| Coordinate file name                                      __STD_INPUT__
 GLOBAL| Method name                                                        CP2K
 GLOBAL| Project name                                                    Ni_bulk
 GLOBAL| Preferred FFT library                                             FFTW3
 GLOBAL| Preferred diagonalization lib.                                     ELPA
 GLOBAL| Run type                                                         ENERGY
 GLOBAL| All-to-all communication in single precision                          F
 GLOBAL| FFTs using library dependent lengths                                  F
 GLOBAL| Global print level                                               MEDIUM
 GLOBAL| MPI I/O enabled                                                       T
 GLOBAL| Total number of message passing processes                            20
 GLOBAL| Number of threads for this process                                    1
 GLOBAL| This output is from process                                           0
 GLOBAL| CPU model name                 Intel(R) Xeon(R) Gold 6248 CPU @ 2.50GHz
 GLOBAL| CPUID                                                              1003

 MEMORY| system memory details [Kb]
 MEMORY|                        rank 0           min           max       average
 MEMORY| MemTotal            197730152     197730152     197730152     197730152
 MEMORY| MemFree             178797456     178797456     178797456     178797456
 MEMORY| Buffers                     0             0             0             0
 MEMORY| Cached               11764016      11764016      11764016      11764016
 MEMORY| Slab                  1072808       1072808       1072808       1072808
 MEMORY| SReclaimable           234656        234656        234656        234656
 MEMORY| MemLikelyFree       190796128     190796128     190796128     190796128


 *** Fundamental physical constants (SI units) ***

 *** Literature: B. J. Mohr and B. N. Taylor,
 ***             CODATA recommended values of the fundamental physical
 ***             constants: 2006, Web Version 5.1
 ***             http://physics.nist.gov/constants

 Speed of light in vacuum [m/s]                             2.99792458000000E+08
 Magnetic constant or permeability of vacuum [N/A**2]       1.25663706143592E-06
 Electric constant or permittivity of vacuum [F/m]          8.85418781762039E-12
 Planck constant (h) [J*s]                                  6.62606896000000E-34
 Planck constant (h-bar) [J*s]                              1.05457162825177E-34
 Elementary charge [C]                                      1.60217648700000E-19
 Electron mass [kg]                                         9.10938215000000E-31
 Electron g factor [ ]                                     -2.00231930436220E+00
 Proton mass [kg]                                           1.67262163700000E-27
 Fine-structure constant                                    7.29735253760000E-03
 Rydberg constant [1/m]                                     1.09737315685270E+07
 Avogadro constant [1/mol]                                  6.02214179000000E+23
 Boltzmann constant [J/K]                                   1.38065040000000E-23
 Atomic mass unit [kg]                                      1.66053878200000E-27
 Bohr radius [m]                                            5.29177208590000E-11

 *** Conversion factors ***

 [u] -> [a.u.]                                              1.82288848426455E+03
 [Angstrom] -> [Bohr] = [a.u.]                              1.88972613288564E+00
 [a.u.] = [Bohr] -> [Angstrom]                              5.29177208590000E-01
 [a.u.] -> [s]                                              2.41888432650478E-17
 [a.u.] -> [fs]                                             2.41888432650478E-02
 [a.u.] -> [J]                                              4.35974393937059E-18
 [a.u.] -> [N]                                              8.23872205491840E-08
 [a.u.] -> [K]                                              3.15774647902944E+05
 [a.u.] -> [kJ/mol]                                         2.62549961709828E+03
 [a.u.] -> [kcal/mol]                                       6.27509468713739E+02
 [a.u.] -> [Pa]                                             2.94210107994716E+13
 [a.u.] -> [bar]                                            2.94210107994716E+08
 [a.u.] -> [atm]                                            2.90362800883016E+08
 [a.u.] -> [eV]                                             2.72113838565563E+01
 [a.u.] -> [Hz]                                             6.57968392072181E+15
 [a.u.] -> [1/cm] (wave numbers)                            2.19474631370540E+05
 [a.u./Bohr**2] -> [1/cm]                                   5.14048714338585E+03
 

 CELL_TOP| Volume [angstrom^3]:                                          983.250
 CELL_TOP| Vector a [angstrom     7.012     0.000     0.000    |a| =       7.012
 CELL_TOP| Vector b [angstrom     0.000     7.012     0.000    |b| =       7.012
 CELL_TOP| Vector c [angstrom     0.000     0.000    20.000    |c| =      20.000
 CELL_TOP| Angle (b,c), alpha [degree]:                                   90.000
 CELL_TOP| Angle (a,c), beta  [degree]:                                   90.000
 CELL_TOP| Angle (a,b), gamma [degree]:                                   90.000
 CELL_TOP| Numerically orthorhombic:                                         YES

 GENERATE|  Preliminary Number of Bonds generated:                             0
 GENERATE|  Achieved consistency in connectivity generation.

 CELL| Volume [angstrom^3]:                                              983.250
 CELL| Vector a [angstrom]:       7.012     0.000     0.000    |a| =       7.012
 CELL| Vector b [angstrom]:       0.000     7.012     0.000    |b| =       7.012
 CELL| Vector c [angstrom]:       0.000     0.000    20.000    |c| =      20.000
 CELL| Angle (b,c), alpha [degree]:                                       90.000
 CELL| Angle (a,c), beta  [degree]:                                       90.000
 CELL| Angle (a,b), gamma [degree]:                                       90.000
 CELL| Numerically orthorhombic:                                             YES

 CELL_REF| Volume [angstrom^3]:                                          983.250
 CELL_REF| Vector a [angstrom     7.012     0.000     0.000    |a| =       7.012
 CELL_REF| Vector b [angstrom     0.000     7.012     0.000    |b| =       7.012
 CELL_REF| Vector c [angstrom     0.000     0.000    20.000    |c| =      20.000
 CELL_REF| Angle (b,c), alpha [degree]:                                   90.000
 CELL_REF| Angle (a,c), beta  [degree]:                                   90.000
 CELL_REF| Angle (a,b), gamma [degree]:                                   90.000
 CELL_REF| Numerically orthorhombic:                                         YES

 *******************************************************************************
 *******************************************************************************
 **                                                                           **
 **     #####                         ##              ##                      **
 **    ##   ##            ##          ##              ##                      **
 **   ##     ##                       ##            ######                    **
 **   ##     ##  ##   ##  ##   #####  ##  ##   ####   ##    #####    #####    **
 **   ##     ##  ##   ##  ##  ##      ## ##   ##      ##   ##   ##  ##   ##   **
 **   ##  ## ##  ##   ##  ##  ##      ####     ###    ##   ######   ######    **
 **    ##  ###   ##   ##  ##  ##      ## ##      ##   ##   ##       ##        **
 **     #######   #####   ##   #####  ##  ##  ####    ##    #####   ##        **
 **           ##                                                    ##        **
 **                                                                           **
 **                                                ... make the atoms dance   **
 **                                                                           **
 **            Copyright (C) by CP2K developers group (2000 - 2019)           **
 **                                                                           **
 *******************************************************************************

 *** WARNING in qs_environment.F:1296 :: More added MOs requested for beta ***
 *** spin than available.                                                  ***


 *** WARNING in qs_environment.F:1310 :: More added MOs requested than ***
 *** available. The full set of unoccupied MOs will be used.           ***


 DFT| Spin unrestricted (spin-polarized) Kohn-Sham calculation               UKS
 DFT| Multiplicity                                                            25
 DFT| Number of spin states                                                    2
 DFT| Charge                                                                   0
 DFT| Self-interaction correction (SIC)                                       NO
 DFT| Cutoffs: density                                              1.000000E-10
 DFT|          gradient                                             1.000000E-10
 DFT|          tau                                                  1.000000E-10
 DFT|          cutoff_smoothing_range                               0.000000E+00
 DFT| XC density smoothing                                                  NONE
 DFT| XC derivatives                                                          PW
 FUNCTIONAL| ROUTINE=NEW
 FUNCTIONAL| PBE:
 FUNCTIONAL| J.P.Perdew, K.Burke, M.Ernzerhof, Phys. Rev. Letter, vol. 77, n 18,
 FUNCTIONAL|  pp. 3865-3868, (1996){spin polarized}                             

 QS| Method:                                                                 GPW
 QS| Density plane wave grid type                        NON-SPHERICAL FULLSPACE
 QS| Number of grid levels:                                                    5
 QS| Density cutoff [a.u.]:                                                300.0
 QS| Multi grid cutoff [a.u.]: 1) grid level                               300.0
 QS|                           2) grid level                               100.0
 QS|                           3) grid level                                33.3
 QS|                           4) grid level                                11.1
 QS|                           5) grid level                                 3.7
 QS| Grid level progression factor:                                          3.0
 QS| Relative density cutoff [a.u.]:                                        30.0
 QS| Consistent realspace mapping and integration 
 QS| Interaction thresholds: eps_pgf_orb:                                1.0E-06
 QS|                         eps_filter_matrix:                          0.0E+00
 QS|                         eps_core_charge:                            1.0E-14
 QS|                         eps_rho_gspace:                             1.0E-12
 QS|                         eps_rho_rspace:                             1.0E-12
 QS|                         eps_gvg_rspace:                             1.0E-06
 QS|                         eps_ppl:                                    1.0E-02
 QS|                         eps_ppnl:                                   1.0E-08


 ATOMIC KIND INFORMATION

  1. Atomic kind: Ni_i                                  Number of atoms:      16

     Orbital Basis Set                                        DZVP-MOLOPT-SR-GTH

       Number of orbital shell sets:                                           1
       Number of orbital shells:                                               8
       Number of primitive Cartesian functions:                                6
       Number of Cartesian basis functions:                                   31
       Number of spherical basis functions:                                   26
       Norm type:                                                              2

       Normalised Cartesian orbitals:

                        Set   Shell   Orbital            Exponent    Coefficient

                          1       1    2s               10.077428      -0.684558
                                                         5.847736      -0.844524
                                                         2.494033       1.088856
                                                         0.988355       0.395503
                                                         0.344978       0.010224
                                                         0.099466      -0.003250

                          1       2    3s               10.077428       0.096747
                                                         5.847736       0.162504
                                                         2.494033      -0.297192
                                                         0.988355      -0.319752
                                                         0.344978       0.088318
                                                         0.099466       0.118587

                          1       3    4s               10.077428       0.036437
                                                         5.847736      -0.381480
                                                         2.494033       0.003759
                                                         0.988355      -1.048256
                                                         0.344978       0.855825
                                                         0.099466      -0.176350

                          1       4    3px              10.077428      -3.133913
                                                         5.847736       3.027656
                                                         2.494033       2.353227
                                                         0.988355       0.554184
                                                         0.344978       0.019462
                                                         0.099466      -0.000291
                          1       4    3py              10.077428      -3.133913
                                                         5.847736       3.027656
                                                         2.494033       2.353227
                                                         0.988355       0.554184
                                                         0.344978       0.019462
                                                         0.099466      -0.000291
                          1       4    3pz              10.077428      -3.133913
                                                         5.847736       3.027656
                                                         2.494033       2.353227
                                                         0.988355       0.554184
                                                         0.344978       0.019462
                                                         0.099466      -0.000291

                          1       5    4px              10.077428      -0.112729
                                                         5.847736      -0.114008
                                                         2.494033      -0.347303
                                                         0.988355      -0.110323
                                                         0.344978       0.154096
                                                         0.099466       0.058386
                          1       5    4py              10.077428      -0.112729
                                                         5.847736      -0.114008
                                                         2.494033      -0.347303
                                                         0.988355      -0.110323
                                                         0.344978       0.154096
                                                         0.099466       0.058386
                          1       5    4pz              10.077428      -0.112729
                                                         5.847736      -0.114008
                                                         2.494033      -0.347303
                                                         0.988355      -0.110323
                                                         0.344978       0.154096
                                                         0.099466       0.058386

                          1       6    4dx2             10.077428       8.232726
                                                         5.847736       9.105758
                                                         2.494033       2.849835
                                                         0.988355       0.554319
                                                         0.344978       0.067245
                                                         0.099466       0.001940
                          1       6    4dxy             10.077428      14.259500
                                                         5.847736      15.771636
                                                         2.494033       4.936060
                                                         0.988355       0.960109
                                                         0.344978       0.116472
                                                         0.099466       0.003360
                          1       6    4dxz             10.077428      14.259500
                                                         5.847736      15.771636
                                                         2.494033       4.936060
                                                         0.988355       0.960109
                                                         0.344978       0.116472
                                                         0.099466       0.003360
                          1       6    4dy2             10.077428       8.232726
                                                         5.847736       9.105758
                                                         2.494033       2.849835
                                                         0.988355       0.554319
                                                         0.344978       0.067245
                                                         0.099466       0.001940
                          1       6    4dyz             10.077428      14.259500
                                                         5.847736      15.771636
                                                         2.494033       4.936060
                                                         0.988355       0.960109
                                                         0.344978       0.116472
                                                         0.099466       0.003360
                          1       6    4dz2             10.077428       8.232726
                                                         5.847736       9.105758
                                                         2.494033       2.849835
                                                         0.988355       0.554319
                                                         0.344978       0.067245
                                                         0.099466       0.001940

                          1       7    5dx2             10.077428      -2.715373
                                                         5.847736      -4.020640
                                                         2.494033      -1.397569
                                                         0.988355      -0.076143
                                                         0.344978       0.033435
                                                         0.099466       0.026032
                          1       7    5dxy             10.077428      -4.703164
                                                         5.847736      -6.963952
                                                         2.494033      -2.420661
                                                         0.988355      -0.131883
                                                         0.344978       0.057911
                                                         0.099466       0.045088
                          1       7    5dxz             10.077428      -4.703164
                                                         5.847736      -6.963952
                                                         2.494033      -2.420661
                                                         0.988355      -0.131883
                                                         0.344978       0.057911
                                                         0.099466       0.045088
                          1       7    5dy2             10.077428      -2.715373
                                                         5.847736      -4.020640
                                                         2.494033      -1.397569
                                                         0.988355      -0.076143
                                                         0.344978       0.033435
                                                         0.099466       0.026032
                          1       7    5dyz             10.077428      -4.703164
                                                         5.847736      -6.963952
                                                         2.494033      -2.420661
                                                         0.988355      -0.131883
                                                         0.344978       0.057911
                                                         0.099466       0.045088
                          1       7    5dz2             10.077428      -2.715373
                                                         5.847736      -4.020640
                                                         2.494033      -1.397569
                                                         0.988355      -0.076143
                                                         0.344978       0.033435
                                                         0.099466       0.026032

                          1       8    5fx3             10.077428      -0.467694
                                                         5.847736       0.618100
                                                         2.494033       0.066069
                                                         0.988355       0.262898
                                                         0.344978       0.004720
                                                         0.099466       0.007748
                          1       8    5fx2y            10.077428      -1.045795
                                                         5.847736       1.382114
                                                         2.494033       0.147734
                                                         0.988355       0.587859
                                                         0.344978       0.010555
                                                         0.099466       0.017325
                          1       8    5fx2z            10.077428      -1.045795
                                                         5.847736       1.382114
                                                         2.494033       0.147734
                                                         0.988355       0.587859
                                                         0.344978       0.010555
                                                         0.099466       0.017325
                          1       8    5fxy2            10.077428      -1.045795
                                                         5.847736       1.382114
                                                         2.494033       0.147734
                                                         0.988355       0.587859
                                                         0.344978       0.010555
                                                         0.099466       0.017325
                          1       8    5fxyz            10.077428      -1.811371
                                                         5.847736       2.393892
                                                         2.494033       0.255883
                                                         0.988355       1.018201
                                                         0.344978       0.018282
                                                         0.099466       0.030008
                          1       8    5fxz2            10.077428      -1.045795
                                                         5.847736       1.382114
                                                         2.494033       0.147734
                                                         0.988355       0.587859
                                                         0.344978       0.010555
                                                         0.099466       0.017325
                          1       8    5fy3             10.077428      -0.467694
                                                         5.847736       0.618100
                                                         2.494033       0.066069
                                                         0.988355       0.262898
                                                         0.344978       0.004720
                                                         0.099466       0.007748
                          1       8    5fy2z            10.077428      -1.045795
                                                         5.847736       1.382114
                                                         2.494033       0.147734
                                                         0.988355       0.587859
                                                         0.344978       0.010555
                                                         0.099466       0.017325
                          1       8    5fyz2            10.077428      -1.045795
                                                         5.847736       1.382114
                                                         2.494033       0.147734
                                                         0.988355       0.587859
                                                         0.344978       0.010555
                                                         0.099466       0.017325
                          1       8    5fz3             10.077428      -0.467694
                                                         5.847736       0.618100
                                                         2.494033       0.066069
                                                         0.988355       0.262898
                                                         0.344978       0.004720
                                                         0.099466       0.007748

     GTH Potential information for                                   GTH-PBE-q18

       Description:                       Goedecker-Teter-Hutter pseudopotential
                                           Goedecker et al., PRB 54, 1703 (1996)
                                          Hartwigsen et al., PRB 58, 3641 (1998)
                                                      Krack, TCA 114, 145 (2005)

       Gaussian exponent of the core charge distribution:               4.081633
       Electronic configuration (s p d ...):                           4   6   8

       Parameters of the local part of the GTH pseudopotential:

                          rloc        C1          C2          C3          C4
                        0.350000    2.102166    0.648484

       Parameters of the non-local part of the GTH pseudopotential:

                   l      r(l)      h(i,j,l)

                   0    0.261295    0.622658    9.970227
                                    9.970227  -12.871507
                   1    0.224253  -11.142708   12.429566
                                   12.429566  -14.706861
                   2    0.215348  -12.628146

  2. Atomic kind: Ni_b                                  Number of atoms:      16

     Orbital Basis Set                                        DZVP-MOLOPT-SR-GTH

       Number of orbital shell sets:                                           1
       Number of orbital shells:                                               8
       Number of primitive Cartesian functions:                                6
       Number of Cartesian basis functions:                                   31
       Number of spherical basis functions:                                   26
       Norm type:                                                              2

       Normalised Cartesian orbitals:

                        Set   Shell   Orbital            Exponent    Coefficient

                          1       1    2s               10.077428      -0.684558
                                                         5.847736      -0.844524
                                                         2.494033       1.088856
                                                         0.988355       0.395503
                                                         0.344978       0.010224
                                                         0.099466      -0.003250

                          1       2    3s               10.077428       0.096747
                                                         5.847736       0.162504
                                                         2.494033      -0.297192
                                                         0.988355      -0.319752
                                                         0.344978       0.088318
                                                         0.099466       0.118587

                          1       3    4s               10.077428       0.036437
                                                         5.847736      -0.381480
                                                         2.494033       0.003759
                                                         0.988355      -1.048256
                                                         0.344978       0.855825
                                                         0.099466      -0.176350

                          1       4    3px              10.077428      -3.133913
                                                         5.847736       3.027656
                                                         2.494033       2.353227
                                                         0.988355       0.554184
                                                         0.344978       0.019462
                                                         0.099466      -0.000291
                          1       4    3py              10.077428      -3.133913
                                                         5.847736       3.027656
                                                         2.494033       2.353227
                                                         0.988355       0.554184
                                                         0.344978       0.019462
                                                         0.099466      -0.000291
                          1       4    3pz              10.077428      -3.133913
                                                         5.847736       3.027656
                                                         2.494033       2.353227
                                                         0.988355       0.554184
                                                         0.344978       0.019462
                                                         0.099466      -0.000291

                          1       5    4px              10.077428      -0.112729
                                                         5.847736      -0.114008
                                                         2.494033      -0.347303
                                                         0.988355      -0.110323
                                                         0.344978       0.154096
                                                         0.099466       0.058386
                          1       5    4py              10.077428      -0.112729
                                                         5.847736      -0.114008
                                                         2.494033      -0.347303
                                                         0.988355      -0.110323
                                                         0.344978       0.154096
                                                         0.099466       0.058386
                          1       5    4pz              10.077428      -0.112729
                                                         5.847736      -0.114008
                                                         2.494033      -0.347303
                                                         0.988355      -0.110323
                                                         0.344978       0.154096
                                                         0.099466       0.058386

                          1       6    4dx2             10.077428       8.232726
                                                         5.847736       9.105758
                                                         2.494033       2.849835
                                                         0.988355       0.554319
                                                         0.344978       0.067245
                                                         0.099466       0.001940
                          1       6    4dxy             10.077428      14.259500
                                                         5.847736      15.771636
                                                         2.494033       4.936060
                                                         0.988355       0.960109
                                                         0.344978       0.116472
                                                         0.099466       0.003360
                          1       6    4dxz             10.077428      14.259500
                                                         5.847736      15.771636
                                                         2.494033       4.936060
                                                         0.988355       0.960109
                                                         0.344978       0.116472
                                                         0.099466       0.003360
                          1       6    4dy2             10.077428       8.232726
                                                         5.847736       9.105758
                                                         2.494033       2.849835
                                                         0.988355       0.554319
                                                         0.344978       0.067245
                                                         0.099466       0.001940
                          1       6    4dyz             10.077428      14.259500
                                                         5.847736      15.771636
                                                         2.494033       4.936060
                                                         0.988355       0.960109
                                                         0.344978       0.116472
                                                         0.099466       0.003360
                          1       6    4dz2             10.077428       8.232726
                                                         5.847736       9.105758
                                                         2.494033       2.849835
                                                         0.988355       0.554319
                                                         0.344978       0.067245
                                                         0.099466       0.001940

                          1       7    5dx2             10.077428      -2.715373
                                                         5.847736      -4.020640
                                                         2.494033      -1.397569
                                                         0.988355      -0.076143
                                                         0.344978       0.033435
                                                         0.099466       0.026032
                          1       7    5dxy             10.077428      -4.703164
                                                         5.847736      -6.963952
                                                         2.494033      -2.420661
                                                         0.988355      -0.131883
                                                         0.344978       0.057911
                                                         0.099466       0.045088
                          1       7    5dxz             10.077428      -4.703164
                                                         5.847736      -6.963952
                                                         2.494033      -2.420661
                                                         0.988355      -0.131883
                                                         0.344978       0.057911
                                                         0.099466       0.045088
                          1       7    5dy2             10.077428      -2.715373
                                                         5.847736      -4.020640
                                                         2.494033      -1.397569
                                                         0.988355      -0.076143
                                                         0.344978       0.033435
                                                         0.099466       0.026032
                          1       7    5dyz             10.077428      -4.703164
                                                         5.847736      -6.963952
                                                         2.494033      -2.420661
                                                         0.988355      -0.131883
                                                         0.344978       0.057911
                                                         0.099466       0.045088
                          1       7    5dz2             10.077428      -2.715373
                                                         5.847736      -4.020640
                                                         2.494033      -1.397569
                                                         0.988355      -0.076143
                                                         0.344978       0.033435
                                                         0.099466       0.026032

                          1       8    5fx3             10.077428      -0.467694
                                                         5.847736       0.618100
                                                         2.494033       0.066069
                                                         0.988355       0.262898
                                                         0.344978       0.004720
                                                         0.099466       0.007748
                          1       8    5fx2y            10.077428      -1.045795
                                                         5.847736       1.382114
                                                         2.494033       0.147734
                                                         0.988355       0.587859
                                                         0.344978       0.010555
                                                         0.099466       0.017325
                          1       8    5fx2z            10.077428      -1.045795
                                                         5.847736       1.382114
                                                         2.494033       0.147734
                                                         0.988355       0.587859
                                                         0.344978       0.010555
                                                         0.099466       0.017325
                          1       8    5fxy2            10.077428      -1.045795
                                                         5.847736       1.382114
                                                         2.494033       0.147734
                                                         0.988355       0.587859
                                                         0.344978       0.010555
                                                         0.099466       0.017325
                          1       8    5fxyz            10.077428      -1.811371
                                                         5.847736       2.393892
                                                         2.494033       0.255883
                                                         0.988355       1.018201
                                                         0.344978       0.018282
                                                         0.099466       0.030008
                          1       8    5fxz2            10.077428      -1.045795
                                                         5.847736       1.382114
                                                         2.494033       0.147734
                                                         0.988355       0.587859
                                                         0.344978       0.010555
                                                         0.099466       0.017325
                          1       8    5fy3             10.077428      -0.467694
                                                         5.847736       0.618100
                                                         2.494033       0.066069
                                                         0.988355       0.262898
                                                         0.344978       0.004720
                                                         0.099466       0.007748
                          1       8    5fy2z            10.077428      -1.045795
                                                         5.847736       1.382114
                                                         2.494033       0.147734
                                                         0.988355       0.587859
                                                         0.344978       0.010555
                                                         0.099466       0.017325
                          1       8    5fyz2            10.077428      -1.045795
                                                         5.847736       1.382114
                                                         2.494033       0.147734
                                                         0.988355       0.587859
                                                         0.344978       0.010555
                                                         0.099466       0.017325
                          1       8    5fz3             10.077428      -0.467694
                                                         5.847736       0.618100
                                                         2.494033       0.066069
                                                         0.988355       0.262898
                                                         0.344978       0.004720
                                                         0.099466       0.007748

     GTH Potential information for                                   GTH-PBE-q18

       Description:                       Goedecker-Teter-Hutter pseudopotential
                                           Goedecker et al., PRB 54, 1703 (1996)
                                          Hartwigsen et al., PRB 58, 3641 (1998)
                                                      Krack, TCA 114, 145 (2005)

       Gaussian exponent of the core charge distribution:               4.081633
       Electronic configuration (s p d ...):                           4   6   8

       Parameters of the local part of the GTH pseudopotential:

                          rloc        C1          C2          C3          C4
                        0.350000    2.102166    0.648484

       Parameters of the non-local part of the GTH pseudopotential:

                   l      r(l)      h(i,j,l)

                   0    0.261295    0.622658    9.970227
                                    9.970227  -12.871507
                   1    0.224253  -11.142708   12.429566
                                   12.429566  -14.706861
                   2    0.215348  -12.628146


 MOLECULE KIND INFORMATION


 All atoms are their own molecule, skipping detailed information


 TOTAL NUMBERS AND MAXIMUM NUMBERS

  Total number of            - Atomic kinds:                                   2
                             - Atoms:                                         32
                             - Shell sets:                                    32
                             - Shells:                                       256
                             - Primitive Cartesian functions:                192
                             - Cartesian basis functions:                    992
                             - Spherical basis functions:                    832

  Maximum angular momentum of- Orbital basis functions:                        3
                             - Local part of the GTH pseudopotential:          2
                             - Non-local part of the GTH pseudopotential:      3


 MODULE QUICKSTEP:  ATOMIC COORDINATES IN angstrom

  Atom  Kind  Element       X           Y           Z          Z(eff)       Mass

       1     1 Ni  28    0.000000    0.000000    0.000000     18.00      58.6934
       2     2 Ni  28    0.000000    1.752900    1.752900     18.00      58.6934
       3     2 Ni  28    1.752900    0.000000    1.752900     18.00      58.6934
       4     1 Ni  28    1.752900    1.752900    0.000000     18.00      58.6934
       5     1 Ni  28    3.505798    0.000000    0.000000     18.00      58.6934
       6     2 Ni  28    3.505798    1.752900    1.752900     18.00      58.6934
       7     2 Ni  28    5.258698    0.000000    1.752900     18.00      58.6934
       8     1 Ni  28    5.258698    1.752900    0.000000     18.00      58.6934
       9     1 Ni  28    0.000000    3.505798    0.000000     18.00      58.6934
      10     2 Ni  28    0.000000    5.258698    1.752900     18.00      58.6934
      11     2 Ni  28    1.752900    3.505798    1.752900     18.00      58.6934
      12     1 Ni  28    1.752900    5.258698    0.000000     18.00      58.6934
      13     1 Ni  28    3.505798    3.505798    0.000000     18.00      58.6934
      14     2 Ni  28    3.505798    5.258698    1.752900     18.00      58.6934
      15     2 Ni  28    5.258698    3.505798    1.752900     18.00      58.6934
      16     1 Ni  28    5.258698    5.258698    0.000000     18.00      58.6934
      17     2 Ni  28    0.000000    0.000000    3.505798     18.00      58.6934
      18     1 Ni  28    0.000000    1.752900    5.258698     18.00      58.6934
      19     1 Ni  28    1.752900    0.000000    5.258698     18.00      58.6934
      20     2 Ni  28    1.752900    1.752900    3.505798     18.00      58.6934
      21     2 Ni  28    3.505798    0.000000    3.505798     18.00      58.6934
      22     1 Ni  28    3.505798    1.752900    5.258698     18.00      58.6934
      23     1 Ni  28    5.258698    0.000000    5.258698     18.00      58.6934
      24     2 Ni  28    5.258698    1.752900    3.505798     18.00      58.6934
      25     2 Ni  28    0.000000    3.505798    3.505798     18.00      58.6934
      26     1 Ni  28    0.000000    5.258698    5.258698     18.00      58.6934
      27     1 Ni  28    1.752900    3.505798    5.258698     18.00      58.6934
      28     2 Ni  28    1.752900    5.258698    3.505798     18.00      58.6934
      29     2 Ni  28    3.505798    3.505798    3.505798     18.00      58.6934
      30     1 Ni  28    3.505798    5.258698    5.258698     18.00      58.6934
      31     1 Ni  28    5.258698    3.505798    5.258698     18.00      58.6934
      32     2 Ni  28    5.258698    5.258698    3.505798     18.00      58.6934




 SCF PARAMETERS         Density guess:                                   RESTART
                        --------------------------------------------------------
                        max_scf:                                             500
                        max_scf_history:                                       0
                        max_diis:                                             10
                        --------------------------------------------------------
                        eps_scf:                                        1.00E-04
                        eps_scf_history:                                0.00E+00
                        eps_diis:                                       1.00E-01
                        eps_eigval:                                     1.00E-05
                        --------------------------------------------------------
                        level_shift [a.u.]:                                 0.00
                        added MOs                                       532  556
                        --------------------------------------------------------
                        Mixing method:                            BROYDEN_MIXING
                                                charge density mixing in g-space
                        --------------------------------------------------------
                        Smear method:                                FERMI_DIRAC
                        Electronic temperature [K]:                        500.0
                        Electronic temperature [a.u.]:                  1.58E-03
                        Accuracy threshold:                             1.00E-10
                        --------------------------------------------------------
                        No outer SCF

 PW_GRID| Information for grid number                                          1
 PW_GRID| Grid distributed over                                    20 processors
 PW_GRID| Real space group dimensions                                    20    1
 PW_GRID| the grid is blocked:                                                NO
 PW_GRID| Cutoff [a.u.]                                                    300.0
 PW_GRID| spherical cutoff:                                                   NO
 PW_GRID|   Bounds   1            -54      53                Points:         108
 PW_GRID|   Bounds   2            -54      53                Points:         108
 PW_GRID|   Bounds   3           -150     149                Points:         300
 PW_GRID| Volume element (a.u.^3)  0.1896E-02     Volume (a.u.^3)      6635.2971
 PW_GRID| Grid span                                                    FULLSPACE
 PW_GRID|   Distribution                         Average         Max         Min
 PW_GRID|   G-Vectors                           174960.0      174960      174960
 PW_GRID|   G-Rays                                1620.0        1620        1620
 PW_GRID|   Real Space Points                   174960.0      194400      162000

 PW_GRID| Information for grid number                                          2
 PW_GRID| Number of the reference grid                                         1
 PW_GRID| Grid distributed over                                    20 processors
 PW_GRID| Real space group dimensions                                    20    1
 PW_GRID| the grid is blocked:                                                NO
 PW_GRID| Cutoff [a.u.]                                                    100.0
 PW_GRID| spherical cutoff:                                                   NO
 PW_GRID|   Bounds   1            -30      29                Points:          60
 PW_GRID|   Bounds   2            -30      29                Points:          60
 PW_GRID|   Bounds   3            -90      89                Points:         180
 PW_GRID| Volume element (a.u.^3)  0.1024E-01     Volume (a.u.^3)      6635.2971
 PW_GRID| Grid span                                                    FULLSPACE
 PW_GRID|   Distribution                         Average         Max         Min
 PW_GRID|   G-Vectors                            32400.0       32640       32160
 PW_GRID|   G-Rays                                 540.0         544         536
 PW_GRID|   Real Space Points                    32400.0       32400       32400

 PW_GRID| Information for grid number                                          3
 PW_GRID| Number of the reference grid                                         1
 PW_GRID| Grid distributed over                                    20 processors
 PW_GRID| Real space group dimensions                                    20    1
 PW_GRID| the grid is blocked:                                                NO
 PW_GRID| Cutoff [a.u.]                                                     33.3
 PW_GRID| spherical cutoff:                                                   NO
 PW_GRID|   Bounds   1            -18      17                Points:          36
 PW_GRID|   Bounds   2            -18      17                Points:          36
 PW_GRID|   Bounds   3            -50      49                Points:         100
 PW_GRID| Volume element (a.u.^3)  0.5120E-01     Volume (a.u.^3)      6635.2971
 PW_GRID| Grid span                                                    FULLSPACE
 PW_GRID|   Distribution                         Average         Max         Min
 PW_GRID|   G-Vectors                             6480.0        6588        6300
 PW_GRID|   G-Rays                                 180.0         183         175
 PW_GRID|   Real Space Points                     6480.0        7200        3600

 PW_GRID| Information for grid number                                          4
 PW_GRID| Number of the reference grid                                         1
 PW_GRID| Grid distributed over                                    20 processors
 PW_GRID| Real space group dimensions                                    20    1
 PW_GRID| the grid is blocked:                                                NO
 PW_GRID| Cutoff [a.u.]                                                     11.1
 PW_GRID| spherical cutoff:                                                   NO
 PW_GRID|   Bounds   1            -10       9                Points:          20
 PW_GRID|   Bounds   2            -10       9                Points:          20
 PW_GRID|   Bounds   3            -30      29                Points:          60
 PW_GRID| Volume element (a.u.^3)  0.2765         Volume (a.u.^3)      6635.2971
 PW_GRID| Grid span                                                    FULLSPACE
 PW_GRID|   Distribution                         Average         Max         Min
 PW_GRID|   G-Vectors                             1200.0        1320        1060
 PW_GRID|   G-Rays                                  60.0          66          53
 PW_GRID|   Real Space Points                     1200.0        1200        1200

 PW_GRID| Information for grid number                                          5
 PW_GRID| Number of the reference grid                                         1
 PW_GRID| Grid distributed over                                    20 processors
 PW_GRID| Real space group dimensions                                     4    5
 PW_GRID| the grid is blocked:                                                NO
 PW_GRID| Cutoff [a.u.]                                                      3.7
 PW_GRID| spherical cutoff:                                                   NO
 PW_GRID|   Bounds   1             -6       5                Points:          12
 PW_GRID|   Bounds   2             -6       5                Points:          12
 PW_GRID|   Bounds   3            -18      17                Points:          36
 PW_GRID| Volume element (a.u.^3)   1.280         Volume (a.u.^3)      6635.2971
 PW_GRID| Grid span                                                    FULLSPACE
 PW_GRID|   Distribution                         Average         Max         Min
 PW_GRID|   G-Vectors                              259.2         300         204
 PW_GRID|   G-Rays                                  21.6          25          17
 PW_GRID|   Real Space Points                      259.2         324         216

 POISSON| Solver                                                        PERIODIC
 POISSON| Periodicity                                                        XYZ

 RS_GRID| Information for grid number                                          1
 RS_GRID|   Bounds   1            -54      53                Points:         108
 RS_GRID|   Bounds   2            -54      53                Points:         108
 RS_GRID|   Bounds   3           -150     149                Points:         300
 RS_GRID| Real space distribution over                                 20 groups
 RS_GRID| Real space distribution along direction                              3
 RS_GRID| Border size                                                         28
 RS_GRID|   Distribution                         Average         Max         Min
 RS_GRID|   Planes                                  71.0          71          71

 RS_GRID| Information for grid number                                          2
 RS_GRID|   Bounds   1            -30      29                Points:          60
 RS_GRID|   Bounds   2            -30      29                Points:          60
 RS_GRID|   Bounds   3            -90      89                Points:         180
 RS_GRID| Real space distribution over                                 20 groups
 RS_GRID| Real space distribution along direction                              3
 RS_GRID| Border size                                                         28
 RS_GRID|   Distribution                         Average         Max         Min
 RS_GRID|   Planes                                  65.0          65          65

 RS_GRID| Information for grid number                                          3
 RS_GRID|   Bounds   1            -18      17                Points:          36
 RS_GRID|   Bounds   2            -18      17                Points:          36
 RS_GRID|   Bounds   3            -50      49                Points:         100
 RS_GRID| Real space fully replicated
 RS_GRID| Group size                                                           1

 RS_GRID| Information for grid number                                          4
 RS_GRID|   Bounds   1            -10       9                Points:          20
 RS_GRID|   Bounds   2            -10       9                Points:          20
 RS_GRID|   Bounds   3            -30      29                Points:          60
 RS_GRID| Real space fully replicated
 RS_GRID| Group size                                                           1

 RS_GRID| Information for grid number                                          5
 RS_GRID|   Bounds   1             -6       5                Points:          12
 RS_GRID|   Bounds   2             -6       5                Points:          12
 RS_GRID|   Bounds   3            -18      17                Points:          36
 RS_GRID| Real space fully replicated
 RS_GRID| Group size                                                           1

 Spin 1

 Number of electrons:                                                        300
 Number of occupied orbitals:                                                300
 Number of molecular orbitals:                                               832

 Spin 2

 Number of electrons:                                                        276
 Number of occupied orbitals:                                                276
 Number of molecular orbitals:                                               832

 Number of orbital functions:                                                832
 Number of independent orbital functions:                                    832

 Extrapolation method: initial_guess


 SCF WAVEFUNCTION OPTIMIZATION

  Step     Update method      Time    Convergence         Total energy    Change
  ------------------------------------------------------------------------------
     1 NoMix/Diag. 0.10E-01    1.0     0.18364090     -5417.2954431084 -5.42E+03
     2 Broy./Diag. 0.10E-01    1.5     0.09096917     -5434.9358846650 -1.76E+01
     3 Broy./Diag. 0.10E-01    1.4     0.14823406     -5433.6744024829  1.26E+00
     4 Broy./Diag. 0.10E-01    1.4     0.02116501     -5429.6360038713  4.04E+00
     5 Broy./Diag. 0.10E-01    1.5     0.01412314     -5428.6185639331  1.02E+00
     6 Broy./Diag. 0.10E-01    1.4     0.02926011     -5426.4561590072  2.16E+00
     7 Broy./Diag. 0.10E-01    1.5     0.00790971     -5420.0400822896  6.42E+00
     8 Broy./Diag. 0.10E-01    1.6     0.02431187     -5417.5826524280  2.46E+00
     9 Broy./Diag. 0.10E-01    1.7     0.00446436     -5412.7810814510  4.80E+00
    10 Broy./Diag. 0.10E-01    1.5     0.03390349     -5413.2533132072 -4.72E-01
    11 Broy./Diag. 0.10E-01    1.4     0.02098330     -5417.9863469329 -4.73E+00
    12 Broy./Diag. 0.10E-01    1.4     0.00578889     -5413.3939072048  4.59E+00
    13 Broy./Diag. 0.10E-01    1.5     0.01149038     -5416.4277412445 -3.03E+00
    14 Broy./Diag. 0.10E-01    1.5     0.00648416     -5417.3803141774 -9.53E-01
    15 Broy./Diag. 0.10E-01    1.5     0.00035638     -5418.5798754535 -1.20E+00
    16 Broy./Diag. 0.10E-01    1.5     0.00233761     -5418.5862109735 -6.34E-03
    17 Broy./Diag. 0.10E-01    1.4     0.00346027     -5418.5553189129  3.09E-02
    18 Broy./Diag. 0.10E-01    1.4     0.00175683     -5417.6102019964  9.45E-01
    19 Broy./Diag. 0.10E-01    1.4     0.00368860     -5417.4066201915  2.04E-01
    20 Broy./Diag. 0.10E-01    1.4     0.00164271     -5417.3996032099  7.02E-03
    21 Broy./Diag. 0.10E-01    1.4     0.00358916     -5417.3654374616  3.42E-02
    22 Broy./Diag. 0.10E-01    1.5     0.00094649     -5417.4996758039 -1.34E-01
    23 Broy./Diag. 0.10E-01    1.5     0.00133023     -5417.5760107202 -7.63E-02
    24 Broy./Diag. 0.10E-01    1.5     0.00056474     -5417.4169417233  1.59E-01
    25 Broy./Diag. 0.10E-01    1.5     0.00626463     -5417.4380823321 -2.11E-02
    26 Broy./Diag. 0.10E-01    1.5     0.01561169     -5417.4272900831  1.08E-02
    27 Broy./Diag. 0.10E-01    1.4     0.00779825     -5417.5610025684 -1.34E-01
    28 Broy./Diag. 0.10E-01    1.5     0.00726059     -5417.6946497696 -1.34E-01
    29 Broy./Diag. 0.10E-01    1.4     0.00787709     -5417.8203533862 -1.26E-01
    30 Broy./Diag. 0.10E-01    1.5     0.00227578     -5417.6768614177  1.43E-01
    31 Broy./Diag. 0.10E-01    1.5     0.00548166     -5417.8028070338 -1.26E-01
    32 Broy./Diag. 0.10E-01    1.4     0.00380877     -5417.6492382164  1.54E-01
    33 Broy./Diag. 0.10E-01    1.4     0.00112558     -5417.6115865177  3.77E-02
    34 Broy./Diag. 0.10E-01    1.4     0.00478090     -5417.7045425136 -9.30E-02
    35 Broy./Diag. 0.10E-01    1.6     0.00178126     -5417.8153266070 -1.11E-01
    36 Broy./Diag. 0.10E-01    1.7     0.00556267     -5417.8003125410  1.50E-02
    37 Broy./Diag. 0.10E-01    1.5     0.00290375     -5417.8711418048 -7.08E-02
    38 Broy./Diag. 0.10E-01    1.5     0.00312358     -5417.8823235394 -1.12E-02
    39 Broy./Diag. 0.10E-01    1.5     0.00827809     -5417.8865866506 -4.26E-03
    40 Broy./Diag. 0.10E-01    1.5     0.00409651     -5417.9168509760 -3.03E-02
    41 Broy./Diag. 0.10E-01    1.5     0.00641777     -5417.8231373328  9.37E-02
    42 Broy./Diag. 0.10E-01    1.5     0.00393430     -5417.9781775825 -1.55E-01
    43 Broy./Diag. 0.10E-01    1.5     0.00186614     -5417.7980312569  1.80E-01
    44 Broy./Diag. 0.10E-01    1.5     0.00419386     -5417.8546887290 -5.67E-02
    45 Broy./Diag. 0.10E-01    1.5     0.00721488     -5417.8195118798  3.52E-02
    46 Broy./Diag. 0.10E-01    1.5     0.00352920     -5417.9053512215 -8.58E-02
    47 Broy./Diag. 0.10E-01    1.5     0.00736897     -5417.8744801589  3.09E-02
    48 Broy./Diag. 0.10E-01    1.5     0.00224893     -5417.8469607328  2.75E-02
    49 Broy./Diag. 0.10E-01    1.5     0.00198192     -5417.8326596920  1.43E-02
    50 Broy./Diag. 0.10E-01    1.4     0.00768897     -5417.8592297856 -2.66E-02
    51 Broy./Diag. 0.10E-01    1.4     0.00162200     -5417.7217744673  1.37E-01
    52 Broy./Diag. 0.10E-01    1.4     0.00385647     -5417.7400409618 -1.83E-02
    53 Broy./Diag. 0.10E-01    1.4     0.00518634     -5417.6898678580  5.02E-02
    54 Broy./Diag. 0.10E-01    1.4     0.00420324     -5417.6731583773  1.67E-02
    55 Broy./Diag. 0.10E-01    1.4     0.00291611     -5417.6506779059  2.25E-02
    56 Broy./Diag. 0.10E-01    1.4     0.00371830     -5417.6242697368  2.64E-02
    57 Broy./Diag. 0.10E-01    1.4     0.00582871     -5417.5844227552  3.98E-02
    58 Broy./Diag. 0.10E-01    1.5     0.00592952     -5417.5454211990  3.90E-02
    59 Broy./Diag. 0.10E-01    1.5     0.00433454     -5417.5598701821 -1.44E-02
    60 Broy./Diag. 0.10E-01    1.5     0.00754919     -5417.4512816502  1.09E-01
    61 Broy./Diag. 0.10E-01    1.5     0.00257633     -5417.5894030369 -1.38E-01
    62 Broy./Diag. 0.10E-01    1.6     0.00130709     -5417.6290208416 -3.96E-02
    63 Broy./Diag. 0.10E-01    1.6     0.00230932     -5417.6028130111  2.62E-02
    64 Broy./Diag. 0.10E-01    1.5     0.00520647     -5417.6307702141 -2.80E-02
    65 Broy./Diag. 0.10E-01    1.5     0.00670816     -5417.6404175313 -9.65E-03
    66 Broy./Diag. 0.10E-01    1.5     0.00951872     -5417.5439768602  9.64E-02
    67 Broy./Diag. 0.10E-01    1.5     0.00315869     -5417.7497989035 -2.06E-01
    68 Broy./Diag. 0.10E-01    1.5     0.00967987     -5417.6454338335  1.04E-01
    69 Broy./Diag. 0.10E-01    1.5     0.00766129     -5417.7625138687 -1.17E-01
    70 Broy./Diag. 0.10E-01    1.5     0.00529214     -5417.7038278341  5.87E-02
    71 Broy./Diag. 0.10E-01    1.4     0.00643665     -5417.7190263077 -1.52E-02
    72 Broy./Diag. 0.10E-01    1.5     0.00374098     -5417.4692216957  2.50E-01
    73 Broy./Diag. 0.10E-01    1.4     0.00418124     -5417.5428562018 -7.36E-02
    74 Broy./Diag. 0.10E-01    1.5     0.00493918     -5417.5575325859 -1.47E-02
    75 Broy./Diag. 0.10E-01    1.4     0.00142711     -5417.6217393162 -6.42E-02
    76 Broy./Diag. 0.10E-01    1.4     0.00350041     -5417.6595056993 -3.78E-02
    77 Broy./Diag. 0.10E-01    1.4     0.00948443     -5417.6634175975 -3.91E-03
    78 Broy./Diag. 0.10E-01    1.4     0.01134026     -5417.7412225563 -7.78E-02
    79 Broy./Diag. 0.10E-01    1.4     0.00179894     -5417.5683711914  1.73E-01
    80 Broy./Diag. 0.10E-01    1.4     0.00109416     -5417.5198843299  4.85E-02
    81 Broy./Diag. 0.10E-01    1.5     0.00779183     -5417.4610832928  5.88E-02
    82 Broy./Diag. 0.10E-01    1.4     0.00664279     -5417.7831039564 -3.22E-01
    83 Broy./Diag. 0.10E-01    1.4     0.00252029     -5417.6578185341  1.25E-01
    84 Broy./Diag. 0.10E-01    1.4     0.00624315     -5417.6379247648  1.99E-02
    85 Broy./Diag. 0.10E-01    1.4     0.00653444     -5417.6698392507 -3.19E-02
    86 Broy./Diag. 0.10E-01    1.5     0.00518730     -5417.6499143776  1.99E-02
    87 Broy./Diag. 0.10E-01    1.5     0.00105079     -5417.6756581693 -2.57E-02
    88 Broy./Diag. 0.10E-01    1.5     0.00886640     -5417.6617085767  1.39E-02
    89 Broy./Diag. 0.10E-01    1.5     0.00203279     -5417.5552473252  1.06E-01
    90 Broy./Diag. 0.10E-01    1.6     0.00170707     -5417.4879693075  6.73E-02
    91 Broy./Diag. 0.10E-01    1.6     0.00936261     -5417.4525951382  3.54E-02
    92 Broy./Diag. 0.10E-01    1.4     0.00325557     -5417.5997934052 -1.47E-01
    93 Broy./Diag. 0.10E-01    1.4     0.00726850     -5417.6464358322 -4.66E-02
    94 Broy./Diag. 0.10E-01    1.4     0.00144178     -5417.5904030051  5.60E-02
    95 Broy./Diag. 0.10E-01    1.4     0.00405157     -5417.5898609393  5.42E-04
    96 Broy./Diag. 0.10E-01    1.5     0.00455366     -5417.7043723584 -1.15E-01
    97 Broy./Diag. 0.10E-01    1.5     0.00389807     -5417.7215108316 -1.71E-02
    98 Broy./Diag. 0.10E-01    1.4     0.00310800     -5417.8466927851 -1.25E-01
    99 Broy./Diag. 0.10E-01    1.5     0.00308127     -5417.8174456388  2.92E-02
   100 Broy./Diag. 0.10E-01    1.5     0.00983275     -5417.8921063222 -7.47E-02
   101 Broy./Diag. 0.10E-01    1.5     0.00943924     -5417.6522088889  2.40E-01
   102 Broy./Diag. 0.10E-01    1.5     0.00256336     -5418.0466762169 -3.94E-01
   103 Broy./Diag. 0.10E-01    1.4     0.00323223     -5417.9567842613  8.99E-02
   104 Broy./Diag. 0.10E-01    1.4     0.00398136     -5417.8263797106  1.30E-01
   105 Broy./Diag. 0.10E-01    1.4     0.00154714     -5417.6613312388  1.65E-01
   106 Broy./Diag. 0.10E-01    1.5     0.00126281     -5417.6229945852  3.83E-02
   107 Broy./Diag. 0.10E-01    1.5     0.00518418     -5417.6605558534 -3.76E-02
   108 Broy./Diag. 0.10E-01    1.5     0.00444268     -5417.7689046658 -1.08E-01
   109 Broy./Diag. 0.10E-01    1.5     0.00483609     -5417.8326989179 -6.38E-02
   110 Broy./Diag. 0.10E-01    1.5     0.00732365     -5417.7878952982  4.48E-02
   111 Broy./Diag. 0.10E-01    1.5     0.00548151     -5417.9660757483 -1.78E-01
   112 Broy./Diag. 0.10E-01    1.5     0.00701712     -5417.7261588118  2.40E-01
   113 Broy./Diag. 0.10E-01    1.5     0.00380174     -5417.6836125437  4.25E-02
   114 Broy./Diag. 0.10E-01    1.4     0.00552478     -5417.7357365278 -5.21E-02
   115 Broy./Diag. 0.10E-01    1.4     0.00473708     -5417.7157375569  2.00E-02
   116 Broy./Diag. 0.10E-01    1.5     0.00354572     -5417.7441113556 -2.84E-02
   117 Broy./Diag. 0.10E-01    1.6     0.00609522     -5417.8103947643 -6.63E-02
   118 Broy./Diag. 0.10E-01    1.6     0.00512585     -5417.5748125520  2.36E-01
   119 Broy./Diag. 0.10E-01    1.5     0.00395932     -5417.6500420708 -7.52E-02
   120 Broy./Diag. 0.10E-01    1.5     0.00452225     -5417.7017507318 -5.17E-02
   121 Broy./Diag. 0.10E-01    1.5     0.00702948     -5417.5714562873  1.30E-01
   122 Broy./Diag. 0.10E-01    1.5     0.00470819     -5417.8276446552 -2.56E-01
   123 Broy./Diag. 0.10E-01    1.4     0.00188993     -5417.7039117891  1.24E-01
   124 Broy./Diag. 0.10E-01    1.4     0.00909388     -5417.7060151341 -2.10E-03
   125 Broy./Diag. 0.10E-01    1.4     0.00741559     -5417.6699634625  3.61E-02
   126 Broy./Diag. 0.10E-01    1.4     0.00598805     -5417.5457282382  1.24E-01
   127 Broy./Diag. 0.10E-01    1.4     0.00924819     -5417.5166745405  2.91E-02
   128 Broy./Diag. 0.10E-01    1.5     0.00534059     -5417.7220728216 -2.05E-01
   129 Broy./Diag. 0.10E-01    1.5     0.00521038     -5417.5717869711  1.50E-01
   130 Broy./Diag. 0.10E-01    1.4     0.01044230     -5417.4840102178  8.78E-02
   131 Broy./Diag. 0.10E-01    1.4     0.00067145     -5417.6498367714 -1.66E-01
   132 Broy./Diag. 0.10E-01    1.4     0.00406182     -5417.6746237901 -2.48E-02
   133 Broy./Diag. 0.10E-01    1.4     0.00521795     -5417.5366973551  1.38E-01
   134 Broy./Diag. 0.10E-01    1.4     0.00449510     -5417.4682844869  6.84E-02
   135 Broy./Diag. 0.10E-01    1.4     0.00277119     -5417.5382264536 -6.99E-02
   136 Broy./Diag. 0.10E-01    1.4     0.00225594     -5417.5160720984  2.22E-02
   137 Broy./Diag. 0.10E-01    1.5     0.00871801     -5417.5213513186 -5.28E-03
   138 Broy./Diag. 0.10E-01    1.4     0.00759576     -5417.3076767547  2.14E-01
   139 Broy./Diag. 0.10E-01    1.5     0.02144619     -5417.2063928570  1.01E-01
   140 Broy./Diag. 0.10E-01    1.5     0.01309873     -5417.5872853280 -3.81E-01
   141 Broy./Diag. 0.10E-01    1.4     0.00278208     -5417.4514198792  1.36E-01
   142 Broy./Diag. 0.10E-01    1.5     0.00126209     -5417.4802223092 -2.88E-02
   143 Broy./Diag. 0.10E-01    1.5     0.00894947     -5417.4989026312 -1.87E-02
   144 Broy./Diag. 0.10E-01    1.6     0.00532159     -5417.4305263535  6.84E-02
   145 Broy./Diag. 0.10E-01    1.6     0.01394603     -5417.3321145777  9.84E-02
   146 Broy./Diag. 0.10E-01    1.5     0.00484641     -5417.3592320009 -2.71E-02
   147 Broy./Diag. 0.10E-01    1.4     0.00613262     -5417.2385356067  1.21E-01
   148 Broy./Diag. 0.10E-01    1.5     0.01013823     -5417.4533736060 -2.15E-01
   149 Broy./Diag. 0.10E-01    1.5     0.00271296     -5417.5277866041 -7.44E-02
   150 Broy./Diag. 0.10E-01    1.5     0.00102045     -5417.4779294310  4.99E-02
   151 Broy./Diag. 0.10E-01    1.5     0.00077581     -5417.5168012426 -3.89E-02
   152 Broy./Diag. 0.10E-01    1.5     0.00032417     -5417.5499642949 -3.32E-02
   153 Broy./Diag. 0.10E-01    1.5     0.00059837     -5417.5499551825  9.11E-06
   154 Broy./Diag. 0.10E-01    1.5     0.00048279     -5417.5600620203 -1.01E-02
   155 Broy./Diag. 0.10E-01    1.4     0.01422667     -5417.5562056995  3.86E-03
   156 Broy./Diag. 0.10E-01    1.5     0.01816796     -5417.8982777705 -3.42E-01
   157 Broy./Diag. 0.10E-01    1.5     0.00385391     -5417.5756086742  3.23E-01
   158 Broy./Diag. 0.10E-01    1.5     0.00483003     -5417.4584894481  1.17E-01
   159 Broy./Diag. 0.10E-01    1.4     0.00107063     -5417.2869029139  1.72E-01
   160 Broy./Diag. 0.10E-01    1.4     0.00853097     -5417.2464706525  4.04E-02
   161 Broy./Diag. 0.10E-01    1.5     0.00795247     -5417.1905952254  5.59E-02
   162 Broy./Diag. 0.10E-01    1.4     0.00560980     -5417.0290196461  1.62E-01
   163 Broy./Diag. 0.10E-01    1.5     0.00800428     -5417.3601887883 -3.31E-01
   164 Broy./Diag. 0.10E-01    1.4     0.00417700     -5417.2630830573  9.71E-02
   165 Broy./Diag. 0.10E-01    1.4     0.01290885     -5417.2605406839  2.54E-03
   166 Broy./Diag. 0.10E-01    1.4     0.00937119     -5416.9925252851  2.68E-01
   167 Broy./Diag. 0.10E-01    1.4     0.00869292     -5417.1706432861 -1.78E-01
   168 Broy./Diag. 0.10E-01    1.4     0.00741301     -5417.2464813850 -7.58E-02
   169 Broy./Diag. 0.10E-01    1.4     0.00395799     -5417.1555939054  9.09E-02
   170 Broy./Diag. 0.10E-01    1.4     0.00170851     -5417.1470860031  8.51E-03
   171 Broy./Diag. 0.10E-01    1.5     0.00398588     -5417.1894577579 -4.24E-02
   172 Broy./Diag. 0.10E-01    1.7     0.01214094     -5417.0113840475  1.78E-01
   173 Broy./Diag. 0.10E-01    1.5     0.00604539     -5417.0876394780 -7.63E-02
   174 Broy./Diag. 0.10E-01    1.4     0.00810009     -5416.8953020190  1.92E-01
   175 Broy./Diag. 0.10E-01    1.5     0.00674999     -5417.1039218084 -2.09E-01
   176 Broy./Diag. 0.10E-01    1.4     0.00337209     -5417.0466505063  5.73E-02
   177 Broy./Diag. 0.10E-01    1.4     0.00873047     -5416.8488034979  1.98E-01
   178 Broy./Diag. 0.10E-01    1.5     0.01072467     -5416.9105174152 -6.17E-02
   179 Broy./Diag. 0.10E-01    1.5     0.00317290     -5417.0542375874 -1.44E-01
   180 Broy./Diag. 0.10E-01    1.4     0.00407390     -5416.9876611956  6.66E-02
   181 Broy./Diag. 0.10E-01    1.5     0.00726408     -5417.2610175730 -2.73E-01
   182 Broy./Diag. 0.10E-01    1.4     0.01916706     -5417.7594878265 -4.98E-01
   183 Broy./Diag. 0.10E-01    1.5     0.00507689     -5417.3255982867  4.34E-01
   184 Broy./Diag. 0.10E-01    1.5     0.00373465     -5417.3851503245 -5.96E-02
   185 Broy./Diag. 0.10E-01    1.5     0.00301060     -5417.3818318994  3.32E-03
   186 Broy./Diag. 0.10E-01    1.5     0.00579337     -5417.2226108331  1.59E-01
   187 Broy./Diag. 0.10E-01    1.5     0.00323554     -5417.1091914111  1.13E-01
   188 Broy./Diag. 0.10E-01    1.5     0.00122145     -5417.2238333306 -1.15E-01
   189 Broy./Diag. 0.10E-01    1.5     0.00296422     -5417.2106189003  1.32E-02
   190 Broy./Diag. 0.10E-01    1.5     0.00137937     -5417.2506053508 -4.00E-02
   191 Broy./Diag. 0.10E-01    1.5     0.00250296     -5417.2563267193 -5.72E-03
   192 Broy./Diag. 0.10E-01    1.5     0.00635367     -5417.3116274550 -5.53E-02
   193 Broy./Diag. 0.10E-01    1.5     0.00858650     -5417.2912203473  2.04E-02
   194 Broy./Diag. 0.10E-01    1.5     0.00940711     -5417.5297021734 -2.38E-01
   195 Broy./Diag. 0.10E-01    1.5     0.01558937     -5417.4013629459  1.28E-01
   196 Broy./Diag. 0.10E-01    1.4     0.00269681     -5417.3364988829  6.49E-02
   197 Broy./Diag. 0.10E-01    1.5     0.00555911     -5417.3247447426  1.18E-02
   198 Broy./Diag. 0.10E-01    1.6     0.00156437     -5417.2925407763  3.22E-02
   199 Broy./Diag. 0.10E-01    1.6     0.00267874     -5417.2439181844  4.86E-02
   200 Broy./Diag. 0.10E-01    1.6     0.00618817     -5417.4537623822 -2.10E-01
   201 Broy./Diag. 0.10E-01    1.5     0.01243247     -5417.2763736308  1.77E-01
   202 Broy./Diag. 0.10E-01    1.4     0.00249901     -5417.5843928908 -3.08E-01
   203 Broy./Diag. 0.10E-01    1.5     0.01072244     -5417.4434278085  1.41E-01
   204 Broy./Diag. 0.10E-01    1.5     0.00732146     -5417.3781926668  6.52E-02
   205 Broy./Diag. 0.10E-01    1.5     0.00437216     -5417.3259530156  5.22E-02
   206 Broy./Diag. 0.10E-01    1.5     0.00224776     -5417.2369051391  8.90E-02
   207 Broy./Diag. 0.10E-01    1.4     0.00350711     -5417.4137510161 -1.77E-01
   208 Broy./Diag. 0.10E-01    1.5     0.00521297     -5417.4103820661  3.37E-03
   209 Broy./Diag. 0.10E-01    1.4     0.00847422     -5417.1091424339  3.01E-01
