 DBCSR| CPU Multiplication driver                                           XSMM (U)
 DBCSR| Multrec recursion limit                                              512 (U)
 DBCSR| Multiplication stack size                                           1000 (D)
 DBCSR| Maximum elements for images                                    UNLIMITED (U)
 DBCSR| Multiplicative factor virtual images                                   1 (U)
 DBCSR| Use multiplication densification                                       T (D)
 DBCSR| Multiplication size stacks                                             3 (U)
 DBCSR| Use memory pool for CPU allocation                                     F (U)
 DBCSR| Number of 3D layers                                               SINGLE (U)
 DBCSR| Use MPI memory allocation                                              F (U)
 DBCSR| Use RMA algorithm                                                      F (U)
 DBCSR| Use Communication thread                                               T (U)
 DBCSR| Communication thread load                                             87 (D)
 DBCSR| MPI: My process id                                                     0
 DBCSR| MPI: Number of processes                                             128
 DBCSR| OMP: Current number of threads                                         1
 DBCSR| OMP: Max number of threads                                             1
 DBCSR| Split modifier for TAS multiplication algorithm                  1.0E+00 (U)


  **** **** ******  **  PROGRAM STARTED AT               2023-02-15 13:23:41.646
 ***** ** ***  *** **   PROGRAM STARTED ON                             nid005981
 **    ****   ******    PROGRAM STARTED BY                                cahart
 ***** **    ** ** **   PROGRAM PROCESS ID                                249932
  **** **  *******  **  PROGRAM STARTED IN /mnt/lustre/a2fs-work2/work/e05/e05/c
                                           ahart/postdoc/masters/ni/archer2/slab
                                           /optimise/magnetisation/scf_1e-4_temp
                                           -2000_mos-1000_alpha-0.08_beta-1.5_pe
                                           riodic-xyz/search/0.46_0.7

 CP2K| version string:                 CP2K version 2023.1 (Development Version)
 CP2K| source code revision number:                                  git:964cd58
 CP2K| cp2kflags: omp libint fftw3 libxc elpa parallel scalapack xsmm plumed2 mk
 CP2K|            l
 CP2K| is freely available from                            https://www.cp2k.org/
 CP2K| Program compiled at                          Mon 13 Feb 17:05:14 GMT 2023
 CP2K| Program compiled on                                                  ln01
 CP2K| Program compiled for                                              ARCHER2
 CP2K| Data directory path    /work/e05/e05/cahart/cp2k/cp2k-2023.1/cp2k-2023.1-
 CP2K| Input file name                                                  cp2k.inp

 GLOBAL| Force Environment number                                              1
 GLOBAL| Basis set file name                                        BASIS_MOLOPT
 GLOBAL| Potential file name                                      GTH_POTENTIALS
 GLOBAL| MM Potential file name                                     MM_POTENTIAL
 GLOBAL| Coordinate file name                                      __STD_INPUT__
 GLOBAL| Method name                                                        CP2K
 GLOBAL| Project name                                                    Ni_bulk
 GLOBAL| Run type                                                         ENERGY
 GLOBAL| FFT library                                                       FFTW3
 GLOBAL| Diagonalization library                                            ELPA
 GLOBAL| DGEMM library                                                      BLAS
 GLOBAL| Minimum number of eigenvectors for ELPA usage                        16
 GLOBAL| Orthonormality check for eigenvectors                          DISABLED
 GLOBAL| Matrix multiplication library                                 ScaLAPACK
 GLOBAL| All-to-all communication in single precision                          F
 GLOBAL| FFTs using library dependent lengths                                  F
 GLOBAL| Grid backend                                                       AUTO
 GLOBAL| Global print level                                               MEDIUM
 GLOBAL| MPI I/O enabled                                                       T
 GLOBAL| Total number of message passing processes                           128
 GLOBAL| Number of threads for this process                                    1
 GLOBAL| This output is from process                                           0
 GLOBAL| Stack size for threads created by OpenMP (OMP_STACKSIZE)        default
 GLOBAL| CPU model name                          AMD EPYC 7742 64-Core Processor
 GLOBAL| CPUID                                                              1002

 MEMORY| system memory details [Kb]
 MEMORY|                        rank 0           min           max       average
 MEMORY| MemTotal            263528084     263528084     263528084     263528084
 MEMORY| MemFree             238534064     238534064     238534064     238534064
 MEMORY| Buffers                 25752         25752         25752         25752
 MEMORY| Cached                 826192        826192        826192        826192
 MEMORY| Slab                  1658968       1658968       1658968       1658968
 MEMORY| SReclaimable           105976        105976        105976        105976
 MEMORY| MemLikelyFree       239491984     239491984     239491984     239491984


 *** Fundamental physical constants (SI units) ***

 *** Literature: B. J. Mohr and B. N. Taylor,
 ***             CODATA recommended values of the fundamental physical
 ***             constants: 2006, Web Version 5.1
 ***             http://physics.nist.gov/constants

 Speed of light in vacuum [m/s]                             2.99792458000000E+08
 Magnetic constant or permeability of vacuum [N/A**2]       1.25663706143592E-06
 Electric constant or permittivity of vacuum [F/m]          8.85418781762039E-12
 Planck constant (h) [J*s]                                  6.62606896000000E-34
 Planck constant (h-bar) [J*s]                              1.05457162825177E-34
 Elementary charge [C]                                      1.60217648700000E-19
 Electron mass [kg]                                         9.10938215000000E-31
 Electron g factor [ ]                                     -2.00231930436220E+00
 Proton mass [kg]                                           1.67262163700000E-27
 Fine-structure constant                                    7.29735253760000E-03
 Rydberg constant [1/m]                                     1.09737315685270E+07
 Avogadro constant [1/mol]                                  6.02214179000000E+23
 Boltzmann constant [J/K]                                   1.38065040000000E-23
 Atomic mass unit [kg]                                      1.66053878200000E-27
 Bohr radius [m]                                            5.29177208590000E-11

 *** Conversion factors ***

 [u] -> [a.u.]                                              1.82288848426455E+03
 [Angstrom] -> [Bohr] = [a.u.]                              1.88972613288564E+00
 [a.u.] = [Bohr] -> [Angstrom]                              5.29177208590000E-01
 [a.u.] -> [s]                                              2.41888432650478E-17
 [a.u.] -> [fs]                                             2.41888432650478E-02
 [a.u.] -> [J]                                              4.35974393937059E-18
 [a.u.] -> [N]                                              8.23872205491840E-08
 [a.u.] -> [K]                                              3.15774647902944E+05
 [a.u.] -> [kJ/mol]                                         2.62549961709828E+03
 [a.u.] -> [kcal/mol]                                       6.27509468713739E+02
 [a.u.] -> [Pa]                                             2.94210107994716E+13
 [a.u.] -> [bar]                                            2.94210107994716E+08
 [a.u.] -> [atm]                                            2.90362800883016E+08
 [a.u.] -> [eV]                                             2.72113838565563E+01
 [a.u.] -> [Hz]                                             6.57968392072181E+15
 [a.u.] -> [1/cm] (wave numbers)                            2.19474631370540E+05
 [a.u./Bohr**2] -> [1/cm]                                   5.14048714338585E+03
 

 CELL_TOP| Volume [angstrom^3]:                                       983.249569
 CELL_TOP| Vector a [angstrom     7.012     0.000     0.000   |a| =     7.011596
 CELL_TOP| Vector b [angstrom     0.000     7.012     0.000   |b| =     7.011596
 CELL_TOP| Vector c [angstrom     0.000     0.000    20.000   |c| =    20.000000
 CELL_TOP| Angle (b,c), alpha [degree]:                                90.000000
 CELL_TOP| Angle (a,c), beta  [degree]:                                90.000000
 CELL_TOP| Angle (a,b), gamma [degree]:                                90.000000
 CELL_TOP| Numerically orthorhombic:                                         YES
 CELL_TOP| Periodicity                                                       XYZ

 GENERATE|  Preliminary Number of Bonds generated:                             0
 GENERATE|  Achieved consistency in connectivity generation.

 CELL| Volume [angstrom^3]:                                           983.249569
 CELL| Vector a [angstrom]:       7.012     0.000     0.000   |a| =     7.011596
 CELL| Vector b [angstrom]:       0.000     7.012     0.000   |b| =     7.011596
 CELL| Vector c [angstrom]:       0.000     0.000    20.000   |c| =    20.000000
 CELL| Angle (b,c), alpha [degree]:                                    90.000000
 CELL| Angle (a,c), beta  [degree]:                                    90.000000
 CELL| Angle (a,b), gamma [degree]:                                    90.000000
 CELL| Numerically orthorhombic:                                             YES
 CELL| Periodicity                                                           XYZ

 CELL_REF| Volume [angstrom^3]:                                       983.249569
 CELL_REF| Vector a [angstrom     7.012     0.000     0.000   |a| =     7.011596
 CELL_REF| Vector b [angstrom     0.000     7.012     0.000   |b| =     7.011596
 CELL_REF| Vector c [angstrom     0.000     0.000    20.000   |c| =    20.000000
 CELL_REF| Angle (b,c), alpha [degree]:                                90.000000
 CELL_REF| Angle (a,c), beta  [degree]:                                90.000000
 CELL_REF| Angle (a,b), gamma [degree]:                                90.000000
 CELL_REF| Numerically orthorhombic:                                         YES
 CELL_REF| Periodicity                                                       XYZ

 *** WARNING in cryssym.F:165 :: Symmetry library SPGLIB not available ***


 *******************************************************************************
                                    Kpoints
 *******************************************************************************
 BRILLOUIN| K-point scheme                                        Monkhorst-Pack
 BRILLOUIN| K-Point grid                                             4    4    1
 BRILLOUIN| Accuracy in Symmetry determination                      0.100000E-05
 BRILLOUIN| K-Point point group symmetrization                               OFF
 BRILLOUIN| Wavefunction type                                            COMPLEX
 BRILLOUIN| List of Kpoints [2 Pi/Bohr]                                        8
 BRILLOUIN| Number           Weight            X              Y              Z
 BRILLOUIN|     1           0.12500       -0.37500       -0.37500        0.00000
 BRILLOUIN|     2           0.12500       -0.37500       -0.12500        0.00000
 BRILLOUIN|     3           0.12500       -0.37500        0.12500        0.00000
 BRILLOUIN|     4           0.12500       -0.37500        0.37500        0.00000
 BRILLOUIN|     5           0.12500       -0.12500       -0.37500        0.00000
 BRILLOUIN|     6           0.12500       -0.12500       -0.12500        0.00000
 BRILLOUIN|     7           0.12500       -0.12500        0.12500        0.00000
 BRILLOUIN|     8           0.12500       -0.12500        0.37500        0.00000
 *******************************************************************************

 *******************************************************************************
 *******************************************************************************
 **                                                                           **
 **     #####                         ##              ##                      **
 **    ##   ##            ##          ##              ##                      **
 **   ##     ##                       ##            ######                    **
 **   ##     ##  ##   ##  ##   #####  ##  ##   ####   ##    #####    #####    **
 **   ##     ##  ##   ##  ##  ##      ## ##   ##      ##   ##   ##  ##   ##   **
 **   ##  ## ##  ##   ##  ##  ##      ####     ###    ##   ######   ######    **
 **    ##  ###   ##   ##  ##  ##      ## ##      ##   ##   ##       ##        **
 **     #######   #####   ##   #####  ##  ##  ####    ##    #####   ##        **
 **           ##                                                    ##        **
 **                                                                           **
 **                                                ... make the atoms dance   **
 **                                                                           **
 **            Copyright (C) by CP2K developers group (2000-2023)             **
 **                      J. Chem. Phys. 152, 194103 (2020)                    **
 **                                                                           **
 *******************************************************************************

 *** WARNING in qs_environment.F:1456 :: Number of electrons will be ***
 *** overwritten by NELEC_ALPHA and NELEC_BETA, multiplicity will be ***
 *** ignored.                                                        ***

 Number of electrons should be                                               576
 Sum of NELEC_ALPHA and NELEC_BETA is                                    576.000

 *** WARNING in qs_environment.F:1488 :: NELEC_ALPHA is not an integer, ***
 *** many features will not be supported.                               ***


 *** WARNING in qs_environment.F:1500 :: NELEC_BETA is not an integer, ***
 *** many features will not be supported.                              ***


 *** WARNING in qs_environment.F:1532 :: More ADDED_MOs requested for beta ***
 *** spin than available.                                                  ***


 *** WARNING in qs_environment.F:1548 :: More added MOs requested than     ***
 *** available. The full set of unoccupied MOs will be used. Use           ***
 *** 'ADDED_MOS -1' to always use all available MOs and to get rid of this ***
 *** warning.                                                              ***


 DFT| Spin unrestricted (spin-polarized) Kohn-Sham calculation               UKS
 DFT| Multiplicity                                                             1
 DFT| Number of spin states                                                    2
 DFT| Charge                                                                   0
 DFT| Self-interaction correction (SIC)                                       NO
 DFT| Cutoffs: density                                              1.000000E-10
 DFT|          gradient                                             1.000000E-10
 DFT|          tau                                                  1.000000E-10
 DFT|          cutoff_smoothing_range                               0.000000E+00
 DFT| XC density smoothing                                                  NONE
 DFT| XC derivatives                                                          PW

 FUNCTIONAL| PBE:
 FUNCTIONAL| J.P.Perdew, K.Burke, M.Ernzerhof, Phys. Rev. Letter, vol. 77, n 18,
 FUNCTIONAL|  pp. 3865-3868, (1996){spin polarized}                             

 vdW POTENTIAL|                                                   Pair Potential
 vdW POTENTIAL|          DFT-D3 (Version 3.1)
 vdW POTENTIAL|          Potential Form: S. Grimme et al, JCP 132: 154104 (2010)
 vdW POTENTIAL|          Zero Damping
 vdW POTENTIAL|          Cutoff Radius [Bohr]:                             20.00
 vdW POTENTIAL|          s6 Scaling Factor:                               1.0000
 vdW POTENTIAL|          sr6 Scaling Factor:                              1.2170
 vdW POTENTIAL|          s8 Scaling Factor:                               0.7220
 vdW POTENTIAL|          Cutoff for CN calculation:                   0.1000E-05

 QS| Method:                                                                 GPW
 QS| Density plane wave grid type                        NON-SPHERICAL FULLSPACE
 QS| Number of grid levels:                                                    5
 QS| Density cutoff [a.u.]:                                                300.0
 QS| Multi grid cutoff [a.u.]: 1) grid level                               300.0
 QS|                           2) grid level                               100.0
 QS|                           3) grid level                                33.3
 QS|                           4) grid level                                11.1
 QS|                           5) grid level                                 3.7
 QS| Grid level progression factor:                                          3.0
 QS| Relative density cutoff [a.u.]:                                        30.0
 QS| Interaction thresholds: eps_pgf_orb:                                1.0E-06
 QS|                         eps_filter_matrix:                          0.0E+00
 QS|                         eps_core_charge:                            1.0E-14
 QS|                         eps_rho_gspace:                             1.0E-12
 QS|                         eps_rho_rspace:                             1.0E-12
 QS|                         eps_gvg_rspace:                             1.0E-06
 QS|                         eps_ppl:                                    1.0E-02
 QS|                         eps_ppnl:                                   1.0E-08


 ATOMIC KIND INFORMATION

  1. Atomic kind: Ni_i                                  Number of atoms:      16

     Orbital Basis Set                                        DZVP-MOLOPT-SR-GTH

       Number of orbital shell sets:                                           1
       Number of orbital shells:                                               8
       Number of primitive Cartesian functions:                                6
       Number of Cartesian basis functions:                                   31
       Number of spherical basis functions:                                   26
       Norm type:                                                              2

       Normalised Cartesian orbitals:

                        Set   Shell   Orbital            Exponent    Coefficient

                          1       1    2s               10.077428      -0.684558
                                                         5.847736      -0.844524
                                                         2.494033       1.088856
                                                         0.988355       0.395503
                                                         0.344978       0.010224
                                                         0.099466      -0.003250

                          1       2    3s               10.077428       0.096747
                                                         5.847736       0.162504
                                                         2.494033      -0.297192
                                                         0.988355      -0.319752
                                                         0.344978       0.088318
                                                         0.099466       0.118587

                          1       3    4s               10.077428       0.036437
                                                         5.847736      -0.381480
                                                         2.494033       0.003759
                                                         0.988355      -1.048256
                                                         0.344978       0.855825
                                                         0.099466      -0.176350

                          1       4    3px              10.077428      -3.133913
                                                         5.847736       3.027656
                                                         2.494033       2.353227
                                                         0.988355       0.554184
                                                         0.344978       0.019462
                                                         0.099466      -0.000291
                          1       4    3py              10.077428      -3.133913
                                                         5.847736       3.027656
                                                         2.494033       2.353227
                                                         0.988355       0.554184
                                                         0.344978       0.019462
                                                         0.099466      -0.000291
                          1       4    3pz              10.077428      -3.133913
                                                         5.847736       3.027656
                                                         2.494033       2.353227
                                                         0.988355       0.554184
                                                         0.344978       0.019462
                                                         0.099466      -0.000291

                          1       5    4px              10.077428      -0.112729
                                                         5.847736      -0.114008
                                                         2.494033      -0.347303
                                                         0.988355      -0.110323
                                                         0.344978       0.154096
                                                         0.099466       0.058386
                          1       5    4py              10.077428      -0.112729
                                                         5.847736      -0.114008
                                                         2.494033      -0.347303
                                                         0.988355      -0.110323
                                                         0.344978       0.154096
                                                         0.099466       0.058386
                          1       5    4pz              10.077428      -0.112729
                                                         5.847736      -0.114008
                                                         2.494033      -0.347303
                                                         0.988355      -0.110323
                                                         0.344978       0.154096
                                                         0.099466       0.058386

                          1       6    4dx2             10.077428       8.232726
                                                         5.847736       9.105758
                                                         2.494033       2.849835
                                                         0.988355       0.554319
                                                         0.344978       0.067245
                                                         0.099466       0.001940
                          1       6    4dxy             10.077428      14.259500
                                                         5.847736      15.771636
                                                         2.494033       4.936060
                                                         0.988355       0.960109
                                                         0.344978       0.116472
                                                         0.099466       0.003360
                          1       6    4dxz             10.077428      14.259500
                                                         5.847736      15.771636
                                                         2.494033       4.936060
                                                         0.988355       0.960109
                                                         0.344978       0.116472
                                                         0.099466       0.003360
                          1       6    4dy2             10.077428       8.232726
                                                         5.847736       9.105758
                                                         2.494033       2.849835
                                                         0.988355       0.554319
                                                         0.344978       0.067245
                                                         0.099466       0.001940
                          1       6    4dyz             10.077428      14.259500
                                                         5.847736      15.771636
                                                         2.494033       4.936060
                                                         0.988355       0.960109
                                                         0.344978       0.116472
                                                         0.099466       0.003360
                          1       6    4dz2             10.077428       8.232726
                                                         5.847736       9.105758
                                                         2.494033       2.849835
                                                         0.988355       0.554319
                                                         0.344978       0.067245
                                                         0.099466       0.001940

                          1       7    5dx2             10.077428      -2.715373
                                                         5.847736      -4.020640
                                                         2.494033      -1.397569
                                                         0.988355      -0.076143
                                                         0.344978       0.033435
                                                         0.099466       0.026032
                          1       7    5dxy             10.077428      -4.703164
                                                         5.847736      -6.963952
                                                         2.494033      -2.420661
                                                         0.988355      -0.131883
                                                         0.344978       0.057911
                                                         0.099466       0.045088
                          1       7    5dxz             10.077428      -4.703164
                                                         5.847736      -6.963952
                                                         2.494033      -2.420661
                                                         0.988355      -0.131883
                                                         0.344978       0.057911
                                                         0.099466       0.045088
                          1       7    5dy2             10.077428      -2.715373
                                                         5.847736      -4.020640
                                                         2.494033      -1.397569
                                                         0.988355      -0.076143
                                                         0.344978       0.033435
                                                         0.099466       0.026032
                          1       7    5dyz             10.077428      -4.703164
                                                         5.847736      -6.963952
                                                         2.494033      -2.420661
                                                         0.988355      -0.131883
                                                         0.344978       0.057911
                                                         0.099466       0.045088
                          1       7    5dz2             10.077428      -2.715373
                                                         5.847736      -4.020640
                                                         2.494033      -1.397569
                                                         0.988355      -0.076143
                                                         0.344978       0.033435
                                                         0.099466       0.026032

                          1       8    5fx3             10.077428      -0.467694
                                                         5.847736       0.618100
                                                         2.494033       0.066069
                                                         0.988355       0.262898
                                                         0.344978       0.004720
                                                         0.099466       0.007748
                          1       8    5fx2y            10.077428      -1.045795
                                                         5.847736       1.382114
                                                         2.494033       0.147734
                                                         0.988355       0.587859
                                                         0.344978       0.010555
                                                         0.099466       0.017325
                          1       8    5fx2z            10.077428      -1.045795
                                                         5.847736       1.382114
                                                         2.494033       0.147734
                                                         0.988355       0.587859
                                                         0.344978       0.010555
                                                         0.099466       0.017325
                          1       8    5fxy2            10.077428      -1.045795
                                                         5.847736       1.382114
                                                         2.494033       0.147734
                                                         0.988355       0.587859
                                                         0.344978       0.010555
                                                         0.099466       0.017325
                          1       8    5fxyz            10.077428      -1.811371
                                                         5.847736       2.393892
                                                         2.494033       0.255883
                                                         0.988355       1.018201
                                                         0.344978       0.018282
                                                         0.099466       0.030008
                          1       8    5fxz2            10.077428      -1.045795
                                                         5.847736       1.382114
                                                         2.494033       0.147734
                                                         0.988355       0.587859
                                                         0.344978       0.010555
                                                         0.099466       0.017325
                          1       8    5fy3             10.077428      -0.467694
                                                         5.847736       0.618100
                                                         2.494033       0.066069
                                                         0.988355       0.262898
                                                         0.344978       0.004720
                                                         0.099466       0.007748
                          1       8    5fy2z            10.077428      -1.045795
                                                         5.847736       1.382114
                                                         2.494033       0.147734
                                                         0.988355       0.587859
                                                         0.344978       0.010555
                                                         0.099466       0.017325
                          1       8    5fyz2            10.077428      -1.045795
                                                         5.847736       1.382114
                                                         2.494033       0.147734
                                                         0.988355       0.587859
                                                         0.344978       0.010555
                                                         0.099466       0.017325
                          1       8    5fz3             10.077428      -0.467694
                                                         5.847736       0.618100
                                                         2.494033       0.066069
                                                         0.988355       0.262898
                                                         0.344978       0.004720
                                                         0.099466       0.007748

       Atomic covalent radius [Angstrom]:                                  1.150

       Atomic van der Waals radius [Angstrom]:                             1.630

     GTH Potential information for                                   GTH-PBE-q18

       Description:                       Goedecker-Teter-Hutter pseudopotential
                                           Goedecker et al., PRB 54, 1703 (1996)
                                          Hartwigsen et al., PRB 58, 3641 (1998)
                                                      Krack, TCA 114, 145 (2005)

       Gaussian exponent of the core charge distribution:               4.081633
       Electronic configuration (s p d ...):                           4   6   8

       Parameters of the local part of the GTH pseudopotential:

                          rloc        C1          C2          C3          C4
                        0.350000    2.102166    0.648484

       Parameters of the non-local part of the GTH pseudopotential:

                   l      r(l)      h(i,j,l)

                   0    0.261295    0.622658    9.970227
                                    9.970227  -12.871507
                   1    0.224253  -11.142708   12.429566
                                   12.429566  -14.706861
                   2    0.215348  -12.628146

  2. Atomic kind: Ni_b                                  Number of atoms:      16

     Orbital Basis Set                                        DZVP-MOLOPT-SR-GTH

       Number of orbital shell sets:                                           1
       Number of orbital shells:                                               8
       Number of primitive Cartesian functions:                                6
       Number of Cartesian basis functions:                                   31
       Number of spherical basis functions:                                   26
       Norm type:                                                              2

       Normalised Cartesian orbitals:

                        Set   Shell   Orbital            Exponent    Coefficient

                          1       1    2s               10.077428      -0.684558
                                                         5.847736      -0.844524
                                                         2.494033       1.088856
                                                         0.988355       0.395503
                                                         0.344978       0.010224
                                                         0.099466      -0.003250

                          1       2    3s               10.077428       0.096747
                                                         5.847736       0.162504
                                                         2.494033      -0.297192
                                                         0.988355      -0.319752
                                                         0.344978       0.088318
                                                         0.099466       0.118587

                          1       3    4s               10.077428       0.036437
                                                         5.847736      -0.381480
                                                         2.494033       0.003759
                                                         0.988355      -1.048256
                                                         0.344978       0.855825
                                                         0.099466      -0.176350

                          1       4    3px              10.077428      -3.133913
                                                         5.847736       3.027656
                                                         2.494033       2.353227
                                                         0.988355       0.554184
                                                         0.344978       0.019462
                                                         0.099466      -0.000291
                          1       4    3py              10.077428      -3.133913
                                                         5.847736       3.027656
                                                         2.494033       2.353227
                                                         0.988355       0.554184
                                                         0.344978       0.019462
                                                         0.099466      -0.000291
                          1       4    3pz              10.077428      -3.133913
                                                         5.847736       3.027656
                                                         2.494033       2.353227
                                                         0.988355       0.554184
                                                         0.344978       0.019462
                                                         0.099466      -0.000291

                          1       5    4px              10.077428      -0.112729
                                                         5.847736      -0.114008
                                                         2.494033      -0.347303
                                                         0.988355      -0.110323
                                                         0.344978       0.154096
                                                         0.099466       0.058386
                          1       5    4py              10.077428      -0.112729
                                                         5.847736      -0.114008
                                                         2.494033      -0.347303
                                                         0.988355      -0.110323
                                                         0.344978       0.154096
                                                         0.099466       0.058386
                          1       5    4pz              10.077428      -0.112729
                                                         5.847736      -0.114008
                                                         2.494033      -0.347303
                                                         0.988355      -0.110323
                                                         0.344978       0.154096
                                                         0.099466       0.058386

                          1       6    4dx2             10.077428       8.232726
                                                         5.847736       9.105758
                                                         2.494033       2.849835
                                                         0.988355       0.554319
                                                         0.344978       0.067245
                                                         0.099466       0.001940
                          1       6    4dxy             10.077428      14.259500
                                                         5.847736      15.771636
                                                         2.494033       4.936060
                                                         0.988355       0.960109
                                                         0.344978       0.116472
                                                         0.099466       0.003360
                          1       6    4dxz             10.077428      14.259500
                                                         5.847736      15.771636
                                                         2.494033       4.936060
                                                         0.988355       0.960109
                                                         0.344978       0.116472
                                                         0.099466       0.003360
                          1       6    4dy2             10.077428       8.232726
                                                         5.847736       9.105758
                                                         2.494033       2.849835
                                                         0.988355       0.554319
                                                         0.344978       0.067245
                                                         0.099466       0.001940
                          1       6    4dyz             10.077428      14.259500
                                                         5.847736      15.771636
                                                         2.494033       4.936060
                                                         0.988355       0.960109
                                                         0.344978       0.116472
                                                         0.099466       0.003360
                          1       6    4dz2             10.077428       8.232726
                                                         5.847736       9.105758
                                                         2.494033       2.849835
                                                         0.988355       0.554319
                                                         0.344978       0.067245
                                                         0.099466       0.001940

                          1       7    5dx2             10.077428      -2.715373
                                                         5.847736      -4.020640
                                                         2.494033      -1.397569
                                                         0.988355      -0.076143
                                                         0.344978       0.033435
                                                         0.099466       0.026032
                          1       7    5dxy             10.077428      -4.703164
                                                         5.847736      -6.963952
                                                         2.494033      -2.420661
                                                         0.988355      -0.131883
                                                         0.344978       0.057911
                                                         0.099466       0.045088
                          1       7    5dxz             10.077428      -4.703164
                                                         5.847736      -6.963952
                                                         2.494033      -2.420661
                                                         0.988355      -0.131883
                                                         0.344978       0.057911
                                                         0.099466       0.045088
                          1       7    5dy2             10.077428      -2.715373
                                                         5.847736      -4.020640
                                                         2.494033      -1.397569
                                                         0.988355      -0.076143
                                                         0.344978       0.033435
                                                         0.099466       0.026032
                          1       7    5dyz             10.077428      -4.703164
                                                         5.847736      -6.963952
                                                         2.494033      -2.420661
                                                         0.988355      -0.131883
                                                         0.344978       0.057911
                                                         0.099466       0.045088
                          1       7    5dz2             10.077428      -2.715373
                                                         5.847736      -4.020640
                                                         2.494033      -1.397569
                                                         0.988355      -0.076143
                                                         0.344978       0.033435
                                                         0.099466       0.026032

                          1       8    5fx3             10.077428      -0.467694
                                                         5.847736       0.618100
                                                         2.494033       0.066069
                                                         0.988355       0.262898
                                                         0.344978       0.004720
                                                         0.099466       0.007748
                          1       8    5fx2y            10.077428      -1.045795
                                                         5.847736       1.382114
                                                         2.494033       0.147734
                                                         0.988355       0.587859
                                                         0.344978       0.010555
                                                         0.099466       0.017325
                          1       8    5fx2z            10.077428      -1.045795
                                                         5.847736       1.382114
                                                         2.494033       0.147734
                                                         0.988355       0.587859
                                                         0.344978       0.010555
                                                         0.099466       0.017325
                          1       8    5fxy2            10.077428      -1.045795
                                                         5.847736       1.382114
                                                         2.494033       0.147734
                                                         0.988355       0.587859
                                                         0.344978       0.010555
                                                         0.099466       0.017325
                          1       8    5fxyz            10.077428      -1.811371
                                                         5.847736       2.393892
                                                         2.494033       0.255883
                                                         0.988355       1.018201
                                                         0.344978       0.018282
                                                         0.099466       0.030008
                          1       8    5fxz2            10.077428      -1.045795
                                                         5.847736       1.382114
                                                         2.494033       0.147734
                                                         0.988355       0.587859
                                                         0.344978       0.010555
                                                         0.099466       0.017325
                          1       8    5fy3             10.077428      -0.467694
                                                         5.847736       0.618100
                                                         2.494033       0.066069
                                                         0.988355       0.262898
                                                         0.344978       0.004720
                                                         0.099466       0.007748
                          1       8    5fy2z            10.077428      -1.045795
                                                         5.847736       1.382114
                                                         2.494033       0.147734
                                                         0.988355       0.587859
                                                         0.344978       0.010555
                                                         0.099466       0.017325
                          1       8    5fyz2            10.077428      -1.045795
                                                         5.847736       1.382114
                                                         2.494033       0.147734
                                                         0.988355       0.587859
                                                         0.344978       0.010555
                                                         0.099466       0.017325
                          1       8    5fz3             10.077428      -0.467694
                                                         5.847736       0.618100
                                                         2.494033       0.066069
                                                         0.988355       0.262898
                                                         0.344978       0.004720
                                                         0.099466       0.007748

       Atomic covalent radius [Angstrom]:                                  1.150

       Atomic van der Waals radius [Angstrom]:                             1.630

     GTH Potential information for                                   GTH-PBE-q18

       Description:                       Goedecker-Teter-Hutter pseudopotential
                                           Goedecker et al., PRB 54, 1703 (1996)
                                          Hartwigsen et al., PRB 58, 3641 (1998)
                                                      Krack, TCA 114, 145 (2005)

       Gaussian exponent of the core charge distribution:               4.081633
       Electronic configuration (s p d ...):                           4   6   8

       Parameters of the local part of the GTH pseudopotential:

                          rloc        C1          C2          C3          C4
                        0.350000    2.102166    0.648484

       Parameters of the non-local part of the GTH pseudopotential:

                   l      r(l)      h(i,j,l)

                   0    0.261295    0.622658    9.970227
                                    9.970227  -12.871507
                   1    0.224253  -11.142708   12.429566
                                   12.429566  -14.706861
                   2    0.215348  -12.628146


 MOLECULE KIND INFORMATION


 All atoms are their own molecule, skipping detailed information


 TOTAL NUMBERS AND MAXIMUM NUMBERS

  Total number of            - Atomic kinds:                                   2
                             - Atoms:                                         32
                             - Shell sets:                                    32
                             - Shells:                                       256
                             - Primitive Cartesian functions:                192
                             - Cartesian basis functions:                    992
                             - Spherical basis functions:                    832

  Maximum angular momentum of- Orbital basis functions:                        3
                             - Local part of the GTH pseudopotential:          2
                             - Non-local part of the GTH pseudopotential:      3


 MODULE QUICKSTEP: ATOMIC COORDINATES IN ANGSTROM

   Atom Kind Element         X             Y             Z       Z(eff)     Mass
      1    1 Ni   28      0.876298      0.876298      7.370500  18.0000  58.6934
      2    1 Ni   28      0.876298      4.382298      7.370500  18.0000  58.6934
      3    1 Ni   28      2.629298      2.629298      7.370500  18.0000  58.6934
      4    1 Ni   28      2.629298      6.135298      7.370500  18.0000  58.6934
      5    1 Ni   28      4.382298      0.876298      7.370500  18.0000  58.6934
      6    1 Ni   28      4.382298      4.382298      7.370500  18.0000  58.6934
      7    1 Ni   28      6.135298      2.629298      7.370500  18.0000  58.6934
      8    1 Ni   28      6.135298      6.135298      7.370500  18.0000  58.6934
      9    2 Ni   28      0.876298      2.629298      9.123500  18.0000  58.6934
     10    2 Ni   28      0.876298      6.135298      9.123500  18.0000  58.6934
     11    2 Ni   28      2.629298      0.876298      9.123500  18.0000  58.6934
     12    2 Ni   28      2.629298      4.382298      9.123500  18.0000  58.6934
     13    2 Ni   28      4.382298      2.629298      9.123500  18.0000  58.6934
     14    2 Ni   28      4.382298      6.135298      9.123500  18.0000  58.6934
     15    2 Ni   28      6.135298      0.876298      9.123500  18.0000  58.6934
     16    2 Ni   28      6.135298      4.382298      9.123500  18.0000  58.6934
     17    2 Ni   28      0.876298      0.876298     10.876500  18.0000  58.6934
     18    2 Ni   28      0.876298      4.382298     10.876500  18.0000  58.6934
     19    2 Ni   28      2.629298      2.629298     10.876500  18.0000  58.6934
     20    2 Ni   28      2.629298      6.135298     10.876500  18.0000  58.6934
     21    2 Ni   28      4.382298      0.876298     10.876500  18.0000  58.6934
     22    2 Ni   28      4.382298      4.382298     10.876500  18.0000  58.6934
     23    2 Ni   28      6.135298      2.629298     10.876500  18.0000  58.6934
     24    2 Ni   28      6.135298      6.135298     10.876500  18.0000  58.6934
     25    1 Ni   28      0.876298      2.629298     12.629500  18.0000  58.6934
     26    1 Ni   28      0.876298      6.135298     12.629500  18.0000  58.6934
     27    1 Ni   28      2.629298      0.876298     12.629500  18.0000  58.6934
     28    1 Ni   28      2.629298      4.382298     12.629500  18.0000  58.6934
     29    1 Ni   28      4.382298      2.629298     12.629500  18.0000  58.6934
     30    1 Ni   28      4.382298      6.135298     12.629500  18.0000  58.6934
     31    1 Ni   28      6.135298      0.876298     12.629500  18.0000  58.6934
     32    1 Ni   28      6.135298      4.382298     12.629500  18.0000  58.6934



 SCF PARAMETERS         Density guess:                                    ATOMIC
                        --------------------------------------------------------
                        max_scf:                                             500
                        max_scf_history:                                       0
                        max_diis:                                              4
                        --------------------------------------------------------
                        eps_scf:                                        1.00E-04
                        eps_scf_history:                                0.00E+00
                        eps_diis:                                       1.00E-01
                        eps_eigval:                                     1.00E-05
                        --------------------------------------------------------
                        level_shift [a.u.]:                             0.000000
                        added MOs                                       534  553
                        --------------------------------------------------------
                        Mixing method:                            BROYDEN_MIXING
                                                charge density mixing in g-space
                        --------------------------------------------------------
                        Smear method:                                FERMI_DIRAC
                        Electronic temperature [K]:                       2000.0
                        Electronic temperature [a.u.]:                  6.33E-03
                        Accuracy threshold:                             1.00E-10
                        --------------------------------------------------------
                        No outer SCF

 PW_GRID| Information for grid number                                          1
 PW_GRID| Grid distributed over                                   128 processors
 PW_GRID| Real space group dimensions                                     8   16
 PW_GRID| the grid is blocked:                                               YES
 PW_GRID| Cutoff [a.u.]                                                    300.0
 PW_GRID| spherical cutoff:                                                   NO
 PW_GRID|   Bounds   1            -54      53                Points:         108
 PW_GRID|   Bounds   2            -54      53                Points:         108
 PW_GRID|   Bounds   3           -150     149                Points:         300
 PW_GRID| Volume element (a.u.^3)  0.1896E-02     Volume (a.u.^3)      6635.2971
 PW_GRID| Grid span                                                    FULLSPACE
 PW_GRID|   Distribution                         Average         Max         Min
 PW_GRID|   G-Vectors                            27337.5       28728       25272
 PW_GRID|   G-Rays                                 253.1         266         234
 PW_GRID|   Real Space Points                    27337.5       28728       25272

 PW_GRID| Information for grid number                                          2
 PW_GRID| Number of the reference grid                                         1
 PW_GRID| Grid distributed over                                   128 processors
 PW_GRID| Real space group dimensions                                     8   16
 PW_GRID| the grid is blocked:                                                NO
 PW_GRID| Cutoff [a.u.]                                                    100.0
 PW_GRID| spherical cutoff:                                                   NO
 PW_GRID|   Bounds   1            -30      29                Points:          60
 PW_GRID|   Bounds   2            -30      29                Points:          60
 PW_GRID|   Bounds   3            -90      89                Points:         180
 PW_GRID| Volume element (a.u.^3)  0.1024E-01     Volume (a.u.^3)      6635.2971
 PW_GRID| Grid span                                                    FULLSPACE
 PW_GRID|   Distribution                         Average         Max         Min
 PW_GRID|   G-Vectors                             5062.5       15960           0
 PW_GRID|   G-Rays                                  84.4         266           0
 PW_GRID|   Real Space Points                     5062.5        5760        3780

 PW_GRID| Information for grid number                                          3
 PW_GRID| Number of the reference grid                                         1
 PW_GRID| Grid distributed over                                   128 processors
 PW_GRID| Real space group dimensions                                     8   16
 PW_GRID| the grid is blocked:                                                NO
 PW_GRID| Cutoff [a.u.]                                                     33.3
 PW_GRID| spherical cutoff:                                                   NO
 PW_GRID|   Bounds   1            -18      17                Points:          36
 PW_GRID|   Bounds   2            -18      17                Points:          36
 PW_GRID|   Bounds   3            -50      49                Points:         100
 PW_GRID| Volume element (a.u.^3)  0.5120E-01     Volume (a.u.^3)      6635.2971
 PW_GRID| Grid span                                                    FULLSPACE
 PW_GRID|   Distribution                         Average         Max         Min
 PW_GRID|   G-Vectors                             1012.5        9576           0
 PW_GRID|   G-Rays                                  28.1         266           0
 PW_GRID|   Real Space Points                     1012.5        1500         800

 PW_GRID| Information for grid number                                          4
 PW_GRID| Number of the reference grid                                         1
 PW_GRID| Grid distributed over                                   128 processors
 PW_GRID| Real space group dimensions                                     8   16
 PW_GRID| the grid is blocked:                                                NO
 PW_GRID| Cutoff [a.u.]                                                     11.1
 PW_GRID| spherical cutoff:                                                   NO
 PW_GRID|   Bounds   1            -10       9                Points:          20
 PW_GRID|   Bounds   2            -10       9                Points:          20
 PW_GRID|   Bounds   3            -30      29                Points:          60
 PW_GRID| Volume element (a.u.^3)  0.2765         Volume (a.u.^3)      6635.2971
 PW_GRID| Grid span                                                    FULLSPACE
 PW_GRID|   Distribution                         Average         Max         Min
 PW_GRID|   G-Vectors                              187.5        3800           0
 PW_GRID|   G-Rays                                   9.4         190           0
 PW_GRID|   Real Space Points                      187.5         360         120

 PW_GRID| Information for grid number                                          5
 PW_GRID| Number of the reference grid                                         1
 PW_GRID| Grid distributed over                                   128 processors
 PW_GRID| Real space group dimensions                                     8   16
 PW_GRID| the grid is blocked:                                                NO
 PW_GRID| Cutoff [a.u.]                                                      3.7
 PW_GRID| spherical cutoff:                                                   NO
 PW_GRID|   Bounds   1             -6       5                Points:          12
 PW_GRID|   Bounds   2             -6       5                Points:          12
 PW_GRID|   Bounds   3            -18      17                Points:          36
 PW_GRID| Volume element (a.u.^3)   1.280         Volume (a.u.^3)      6635.2971
 PW_GRID| Grid span                                                    FULLSPACE
 PW_GRID|   Distribution                         Average         Max         Min
 PW_GRID|   G-Vectors                               40.5        1296           0
 PW_GRID|   G-Rays                                   3.4         108           0
 PW_GRID|   Real Space Points                       40.5          72           0

 POISSON| Solver                                                        PERIODIC
 POISSON| Periodicity                                                        XYZ

 RS_GRID| Information for grid number                                          1
 RS_GRID|   Bounds   1            -54      53                Points:         108
 RS_GRID|   Bounds   2            -54      53                Points:         108
 RS_GRID|   Bounds   3           -150     149                Points:         300
 RS_GRID| Real space distribution over                                  8 groups
 RS_GRID| Real space distribution along direction                              2
 RS_GRID| Border size                                                         28
 RS_GRID| Real space distribution over                                 16 groups
 RS_GRID| Real space distribution along direction                              3
 RS_GRID| Border size                                                         28
 RS_GRID|   Distribution                         Average         Max         Min
 RS_GRID|   Planes                                  69.5          70          69
 RS_GRID|   Distribution                         Average         Max         Min
 RS_GRID|   Planes                                  74.8          75          74

 RS_GRID| Information for grid number                                          2
 RS_GRID|   Bounds   1            -30      29                Points:          60
 RS_GRID|   Bounds   2            -30      29                Points:          60
 RS_GRID|   Bounds   3            -90      89                Points:         180
 RS_GRID| Real space fully replicated
 RS_GRID| Group size                                                           1

 RS_GRID| Information for grid number                                          3
 RS_GRID|   Bounds   1            -18      17                Points:          36
 RS_GRID|   Bounds   2            -18      17                Points:          36
 RS_GRID|   Bounds   3            -50      49                Points:         100
 RS_GRID| Real space fully replicated
 RS_GRID| Group size                                                           1

 RS_GRID| Information for grid number                                          4
 RS_GRID|   Bounds   1            -10       9                Points:          20
 RS_GRID|   Bounds   2            -10       9                Points:          20
 RS_GRID|   Bounds   3            -30      29                Points:          60
 RS_GRID| Real space fully replicated
 RS_GRID| Group size                                                           1

 RS_GRID| Information for grid number                                          5
 RS_GRID|   Bounds   1             -6       5                Points:          12
 RS_GRID|   Bounds   2             -6       5                Points:          12
 RS_GRID|   Bounds   3            -18      17                Points:          36
 RS_GRID| Real space fully replicated
 RS_GRID| Group size                                                           1

 Spin 1

 Number of electrons:                                                        297.280
 Number of occupied orbitals:                                                298
 Number of molecular orbitals:                                               832

 Spin 2

 Number of electrons:                                                        278.720
 Number of occupied orbitals:                                                279
 Number of molecular orbitals:                                               832

 Number of orbital functions:                                                832
 Number of independent orbital functions:                                    832

 Extrapolation method: initial_guess

 Atomic guess: The first density matrix is obtained in terms of atomic orbitals
               and electronic configurations assigned to each atomic kind

 Guess for atomic kind: Ni_i

 Electronic structure
    Total number of core electrons                                         10.00
    Total number of valence electrons                                      18.00
    Total number of electrons                                              28.00
    Multiplicity                                                         doublet
    Alpha Electrons
    S   [  1.00  1.00] 1.00  1.00
    P   [  3.00] 3.00
    D      4.35
    Beta Electrons
    S   [  1.00  1.00] 1.00  1.00
    P   [  3.00] 3.00
    D      3.65


 *******************************************************************************
                  Iteration          Convergence                     Energy [au]
 *******************************************************************************
                          1         1.51729                    -167.067424631347
                          2         15.3902                    -156.642654318634
                          3         2.33433                    -168.319355313541
                          4        0.206730                    -168.609905008081
                          5        0.814175E-01                -168.612873080494
                          6        0.173318E-01                -168.613470181066
                          7        0.290432E-02                -168.613543571401
                          8        0.311825E-02                -168.613543401474
                          9        0.179670E-03                -168.613544404477
                         10        0.169386E-02                -168.613544207811
                         11        0.473341E-03                -168.613544360253
                         12        0.165417E-03                -168.613544400419
                         13        0.162622E-03                -168.613544401489
                         14        0.158325E-03                -168.613544403900
                         15        0.177007E-03                -168.613544402509
                         16        0.138916E-03                -168.613544404900
                         17        0.934549E-04                -168.613544406149
                         18        0.119916E-03                -168.613544405789
                         19        0.131607E-03                -168.613544405591
                         20        0.169309E-03                -168.613544404773
                         21        0.551337E-04                -168.613544406656
                         22        0.382664E-04                -168.613544406759
                         23        0.378942E-04                -168.613544406765
                         24        0.381089E-04                -168.613544406765
                         25        0.390835E-04                -168.613544406759
                         26        0.308614E-04                -168.613544406841
                         27        0.205044E-04                -168.613544406892
                         28        0.200942E-04                -168.613544406893
                         29        0.199375E-04                -168.613544406893
                         30        0.200198E-04                -168.613544406894
                         31        0.161325E-04                -168.613544406903
                         32        0.330614E-05                -168.613544406925
                         33        0.238713E-05                -168.613544406926
                         34        0.265439E-05                -168.613544406926
                         35        0.277073E-05                -168.613544406926
                         36        0.335175E-05                -168.613544406926
                         37        0.148809E-05                -168.613544406927
                         38        0.133447E-05                -168.613544406927
                         39        0.918735E-06                -168.613544406927

 Energy components [Hartree]           Total Energy ::         -168.613544406927
                                        Band Energy ::          -26.569761966525
                                     Kinetic Energy ::           97.306723392622
                                   Potential Energy ::         -265.920267799548
                                      Virial (-V/T) ::            2.732804666812
                                        Core Energy ::         -299.567979157577
                                          XC Energy ::          -16.227189041387
                                     Coulomb Energy ::          147.181623792037
                       Total Pseudopotential Energy ::         -396.961043505191
                       Local Pseudopotential Energy ::         -362.648291121960
                    Nonlocal Pseudopotential Energy ::          -34.312752383230
                                        Confinement ::            0.863409549921

 Orbital energies  State     Spin  L     Occupation   Energy[a.u.]    Energy[eV]

                       1    alpha  0          1.000      -4.172666   -113.544030
                       2    alpha  0          1.000      -0.181431     -4.936983
                       1     beta  0          1.000      -4.140640   -112.672541
                       2     beta  0          1.000      -0.176372     -4.799339

                       1    alpha  1          3.000      -2.578739    -70.171064
                       1     beta  1          3.000      -2.547579    -69.323162

                       1    alpha  2          4.350      -0.327039     -8.899191
                       1     beta  2          3.650      -0.300569     -8.178887


 Total Electron Density at R=0:                                         0.030422

 Guess for atomic kind: Ni_b

 Electronic structure
    Total number of core electrons                                         10.00
    Total number of valence electrons                                      18.00
    Total number of electrons                                              28.00
    Multiplicity                                                         singlet
    Alpha Electrons
    S   [  1.00  1.00] 1.00  1.00
    P   [  3.00] 3.00
    D      4.23
    Beta Electrons
    S   [  1.00  1.00] 1.00  1.00
    P   [  3.00] 3.00
    D      3.77


 *******************************************************************************
                  Iteration          Convergence                     Energy [au]
 *******************************************************************************
                          1         1.51678                    -167.064626889967
                          2         14.8997                    -156.616873215239
                          3         2.23991                    -168.316983023133
                          4        0.185630                    -168.607609582376
                          5        0.686875E-01                -168.610437455218
                          6        0.114740E-01                -168.610880943704
                          7        0.652278E-02                -168.610908663664
                          8        0.560983E-02                -168.610909092340
                          9        0.111347E-02                -168.610912255214
                         10        0.266796E-02                -168.610911847997
                         11        0.941894E-03                -168.610912296003
                         12        0.159844E-03                -168.610912407445
                         13        0.128302E-03                -168.610912406769
                         14        0.103566E-03                -168.610912408765
                         15        0.157803E-03                -168.610912405227
                         16        0.163239E-04                -168.610912409624
                         17        0.341184E-04                -168.610912409506
                         18        0.390913E-04                -168.610912409568
                         19        0.246300E-04                -168.610912409629
                         20        0.316763E-04                -168.610912409595
                         21        0.897778E-05                -168.610912409668
                         22        0.808908E-05                -168.610912409670
                         23        0.575657E-05                -168.610912409674
                         24        0.623215E-05                -168.610912409674
                         25        0.205629E-05                -168.610912409677
                         26        0.134694E-05                -168.610912409678
                         27        0.306769E-06                -168.610912409678

 Energy components [Hartree]           Total Energy ::         -168.610912409678
                                        Band Energy ::          -26.568505724746
                                     Kinetic Energy ::           97.303168677414
                                   Potential Energy ::         -265.914081087092
                                      Virial (-V/T) ::            2.732840920820
                                        Core Energy ::         -299.565902538017
                                          XC Energy ::          -16.224177433449
                                     Coulomb Energy ::          147.179167561788
                       Total Pseudopotential Energy ::         -396.955411776522
                       Local Pseudopotential Energy ::         -362.644522988437
                    Nonlocal Pseudopotential Energy ::          -34.310888788085
                                        Confinement ::            0.863405610912

 Orbital energies  State     Spin  L     Occupation   Energy[a.u.]    Energy[eV]

                       1    alpha  0          1.000      -4.167459   -113.402337
                       2    alpha  0          1.000      -0.180589     -4.914068
                       1     beta  0          1.000      -4.146413   -112.829644
                       2     beta  0          1.000      -0.177265     -4.823633

                       1    alpha  1          3.000      -2.573673    -70.033194
                       1     beta  1          3.000      -2.553196    -69.476003

                       1    alpha  2          4.230      -0.322719     -8.781640
                       1     beta  2          3.770      -0.305324     -8.308275


 Total Electron Density at R=0:                                         0.030430

 Spin 1
 Re-scaling the density matrix to get the right number of electrons for spin 1
                  # Electrons              Trace(P)               Scaling factor
                        297.280             297.280                        1.000

 Spin 2
 Re-scaling the density matrix to get the right number of electrons for spin 2
                  # Electrons              Trace(P)               Scaling factor
                        278.720             278.720                        1.000


 SCF WAVEFUNCTION OPTIMIZATION

  Step     Update method      Time    Convergence         Total energy    Change
  ------------------------------------------------------------------------------
     1 NoMix/Diag. 0.80E-01    1.4     0.87321124     -5426.4383050833 -5.43E+03
[...]
   116 Broy./Diag. 0.80E-01    1.5     0.00859537     -5419.1465812995  3.90E-01
   117 Broy./Diag. 0.80E-01    1.5     0.00282885     -5418.6974729818  4.49E-01
   118 Broy./Diag. 0.80E-01    1.5     0.00845252     -5418.7126440574 -1.52E-02
   119 Broy./Diag. 0.80E-01    1.5     0.00220444     -5419.0232276402 -3.11E-01
   120 Broy./Diag. 0.80E-01    1.5     0.00874535     -5418.7202974455  3.03E-01
   121 Broy./Diag. 0.80E-01    1.5     0.00327928     -5416.8622537520  1.86E+00
   122 Broy./Diag. 0.80E-01    1.5     0.00700280     -5416.6571889399  2.05E-01
   123 Broy./Diag. 0.80E-01    1.5     0.02145215     -5417.0817249997 -4.25E-01
   124 Broy./Diag. 0.80E-01    1.5     0.00483986     -5416.1500539123  9.32E-01
   125 Broy./Diag. 0.80E-01    1.5     0.00770690     -5416.1130939537  3.70E-02
   126 Broy./Diag. 0.80E-01    1.5     0.00600852     -5416.0444274984  6.87E-02
   127 Broy./Diag. 0.80E-01    1.5     0.00251492     -5415.9950151626  4.94E-02
   128 Broy./Diag. 0.80E-01    1.5     0.01013847     -5416.3068836793 -3.12E-01
   129 Broy./Diag. 0.80E-01    1.5     0.01879164     -5416.6843398115 -3.77E-01
   130 Broy./Diag. 0.80E-01    1.5     0.00615149     -5416.6619466722  2.24E-02
   131 Broy./Diag. 0.80E-01    1.5     0.00733555     -5416.9082239493 -2.46E-01
   132 Broy./Diag. 0.80E-01    1.5     0.00272370     -5417.6849237932 -7.77E-01
   133 Broy./Diag. 0.80E-01    1.5     0.00279110     -5418.2010154618 -5.16E-01
   134 Broy./Diag. 0.80E-01    1.5     0.01217619     -5418.3525424166 -1.52E-01
   135 Broy./Diag. 0.80E-01    1.5     0.00242215     -5417.8355004636  5.17E-01
   136 Broy./Diag. 0.80E-01    1.5     0.00200540     -5418.2166184571 -3.81E-01
   137 Broy./Diag. 0.80E-01    1.5     0.00139797     -5418.0123214792  2.04E-01
   138 Broy./Diag. 0.80E-01    1.5     0.00266908     -5418.1250401551 -1.13E-01
   139 Broy./Diag. 0.80E-01    1.5     0.00895406     -5417.9114659562  2.14E-01
   140 Broy./Diag. 0.80E-01    1.5     0.00347742     -5418.1218603466 -2.10E-01
   141 Broy./Diag. 0.80E-01    1.5     0.00941497     -5417.0958276700  1.03E+00
   142 Broy./Diag. 0.80E-01    1.5     0.00885343     -5416.7366659725  3.59E-01
   143 Broy./Diag. 0.80E-01    1.5     0.03170584     -5417.0129177762 -2.76E-01
   144 Broy./Diag. 0.80E-01    1.5     0.00729469     -5418.3207660281 -1.31E+00
   145 Broy./Diag. 0.80E-01    1.5     0.00555181     -5417.9949477717  3.26E-01
   146 Broy./Diag. 0.80E-01    1.5     0.01501525     -5418.0783038334 -8.34E-02
   147 Broy./Diag. 0.80E-01    1.5     0.02546569     -5418.5248490348 -4.47E-01
   148 Broy./Diag. 0.80E-01    1.5     0.01306621     -5417.8925261945  6.32E-01
   149 Broy./Diag. 0.80E-01    1.5     0.00457143     -5418.0919756046 -1.99E-01
   150 Broy./Diag. 0.80E-01    1.5     0.00915310     -5418.0872025487  4.77E-03
   151 Broy./Diag. 0.80E-01    1.5     0.00752840     -5418.0096387518  7.76E-02
   152 Broy./Diag. 0.80E-01    1.5     0.00768560     -5417.6511381990  3.59E-01
   153 Broy./Diag. 0.80E-01    1.5     0.01828156     -5417.7025894725 -5.15E-02
   154 Broy./Diag. 0.80E-01    1.5     0.00530019     -5418.1351547864 -4.33E-01
   155 Broy./Diag. 0.80E-01    1.5     0.00179657     -5418.2166301571 -8.15E-02
   156 Broy./Diag. 0.80E-01    1.5     0.02627981     -5418.2617410097 -4.51E-02
   157 Broy./Diag. 0.80E-01    1.5     0.01211893     -5416.6129750978  1.65E+00
   158 Broy./Diag. 0.80E-01    1.5     0.02652860     -5417.8386259518 -1.23E+00
   159 Broy./Diag. 0.80E-01    1.5     0.00787134     -5417.8804969726 -4.19E-02
   160 Broy./Diag. 0.80E-01    1.5     0.00752584     -5417.7389684301  1.42E-01
   161 Broy./Diag. 0.80E-01    1.5     0.00446133     -5417.7006770247  3.83E-02
   162 Broy./Diag. 0.80E-01    1.5     0.00486301     -5417.2206142255  4.80E-01
   163 Broy./Diag. 0.80E-01    1.5     0.02405091     -5417.2037840305  1.68E-02
   164 Broy./Diag. 0.80E-01    1.5     0.04016332     -5418.3622476757 -1.16E+00
   165 Broy./Diag. 0.80E-01    1.5     0.03321229     -5417.2758469913  1.09E+00
   166 Broy./Diag. 0.80E-01    1.5     0.07442657     -5417.7112702920 -4.35E-01
   167 Broy./Diag. 0.80E-01    1.5     0.01371225     -5418.5554297970 -8.44E-01
   168 Broy./Diag. 0.80E-01    1.5     0.06979032     -5418.4070442785  1.48E-01
   169 Broy./Diag. 0.80E-01    1.5     0.02495811     -5418.0509018424  3.56E-01
   170 Broy./Diag. 0.80E-01    1.5     0.01296636     -5418.0804698274 -2.96E-02
   171 Broy./Diag. 0.80E-01    1.5     0.02029527     -5418.2147377039 -1.34E-01
   172 Broy./Diag. 0.80E-01    1.5     0.00249180     -5418.5270140556 -3.12E-01
   173 Broy./Diag. 0.80E-01    1.5     0.01532205     -5418.3949958980  1.32E-01
   174 Broy./Diag. 0.80E-01    1.5     0.01939123     -5417.9603348878  4.35E-01
   175 Broy./Diag. 0.80E-01    1.5     0.01278985     -5418.0153616115 -5.50E-02
   176 Broy./Diag. 0.80E-01    1.5     0.02117754     -5417.5331361443  4.82E-01
   177 Broy./Diag. 0.80E-01    1.5     0.01242174     -5416.6339857018  8.99E-01
   178 Broy./Diag. 0.80E-01    1.5     0.00917364     -5415.8920393474  7.42E-01
   179 Broy./Diag. 0.80E-01    1.5     0.00763188     -5415.7729519854  1.19E-01
   180 Broy./Diag. 0.80E-01    1.5     0.01405896     -5415.6474268486  1.26E-01
   181 Broy./Diag. 0.80E-01    1.5     0.00533496     -5416.0104135045 -3.63E-01
   182 Broy./Diag. 0.80E-01    1.5     0.01021080     -5415.7920104702  2.18E-01
   183 Broy./Diag. 0.80E-01    1.5     0.00831878     -5415.4397528853  3.52E-01
   184 Broy./Diag. 0.80E-01    1.5     0.00448630     -5416.4558833375 -1.02E+00
   185 Broy./Diag. 0.80E-01    1.5     0.01369997     -5416.3065810914  1.49E-01
   186 Broy./Diag. 0.80E-01    1.5     0.02143321     -5416.5413479770 -2.35E-01
   187 Broy./Diag. 0.80E-01    1.5     0.02076279     -5416.4629867213  7.84E-02
   188 Broy./Diag. 0.80E-01    1.5     0.06382097     -5416.6352308725 -1.72E-01
   189 Broy./Diag. 0.80E-01    1.5     0.02214385     -5416.5864692763  4.88E-02
   190 Broy./Diag. 0.80E-01    1.5     0.03086775     -5417.0223766192 -4.36E-01
   191 Broy./Diag. 0.80E-01    1.5     0.01811739     -5417.7341426381 -7.12E-01
   192 Broy./Diag. 0.80E-01    1.5     0.00799161     -5417.9713318658 -2.37E-01
   193 Broy./Diag. 0.80E-01    1.5     0.02733016     -5417.8917346328  7.96E-02
   194 Broy./Diag. 0.80E-01    1.5     0.03103440     -5418.0199577025 -1.28E-01
   195 Broy./Diag. 0.80E-01    1.5     0.03441252     -5417.9601562648  5.98E-02
   196 Broy./Diag. 0.80E-01    1.5     0.02517582     -5417.9199633586  4.02E-02
   197 Broy./Diag. 0.80E-01    1.5     0.01303463     -5417.8353613160  8.46E-02
   198 Broy./Diag. 0.80E-01    1.5     0.03291586     -5417.8723357391 -3.70E-02
   199 Broy./Diag. 0.80E-01    1.5     0.01000018     -5417.8222977207  5.00E-02
   200 Broy./Diag. 0.80E-01    1.5     0.01039427     -5417.8553553071 -3.31E-02
   201 Broy./Diag. 0.80E-01    1.5     0.02407937     -5417.8545511215  8.04E-04
   202 Broy./Diag. 0.80E-01    1.5     0.04150454     -5417.9063820359 -5.18E-02
   203 Broy./Diag. 0.80E-01    1.5     0.03846273     -5417.5256845404  3.81E-01
   204 Broy./Diag. 0.80E-01    1.5     0.01421859     -5416.7186846599  8.07E-01
   205 Broy./Diag. 0.80E-01    1.5     0.09978005     -5416.5150813727  2.04E-01
   206 Broy./Diag. 0.80E-01    1.5     0.00451881     -5417.5908645319 -1.08E+00
   207 Broy./Diag. 0.80E-01    1.5     0.06217359     -5417.5347484208  5.61E-02
   208 Broy./Diag. 0.80E-01    1.5     0.00977341     -5417.3762207669  1.59E-01
   209 Broy./Diag. 0.80E-01    1.5     0.01089303     -5417.2567848196  1.19E-01
   210 Broy./Diag. 0.80E-01    1.5     0.01937525     -5417.3497104821 -9.29E-02
   211 Broy./Diag. 0.80E-01    1.5     0.00971983     -5417.4670648314 -1.17E-01
   212 Broy./Diag. 0.80E-01    1.5     0.04959884     -5417.3635477664  1.04E-01
   213 Broy./Diag. 0.80E-01    1.5     0.00551726     -5416.8249316137  5.39E-01
   214 Broy./Diag. 0.80E-01    1.5     0.00279409     -5417.0527214319 -2.28E-01
   215 Broy./Diag. 0.80E-01    1.5     0.01548724     -5417.3491522921 -2.96E-01
   216 Broy./Diag. 0.80E-01    1.5     0.00641966     -5417.6627941430 -3.14E-01
   217 Broy./Diag. 0.80E-01    1.5     0.00647324     -5417.4760950738  1.87E-01
   218 Broy./Diag. 0.80E-01    1.5     0.01387699     -5417.3654343857  1.11E-01
   219 Broy./Diag. 0.80E-01    1.5     0.01194019     -5417.0904233555  2.75E-01
   220 Broy./Diag. 0.80E-01    1.5     0.01546870     -5417.1796407445 -8.92E-02
   221 Broy./Diag. 0.80E-01    1.5     0.00862957     -5417.2230697572 -4.34E-02
   222 Broy./Diag. 0.80E-01    1.5     0.04823911     -5417.2878011218 -6.47E-02
   223 Broy./Diag. 0.80E-01    1.5     0.01852736     -5417.0983771654  1.89E-01
   224 Broy./Diag. 0.80E-01    1.5     0.03369658     -5417.2723714355 -1.74E-01
   225 Broy./Diag. 0.80E-01    1.5     0.00597059     -5417.1371057553  1.35E-01
   226 Broy./Diag. 0.80E-01    1.5     0.00965252     -5417.5397960051 -4.03E-01
   227 Broy./Diag. 0.80E-01    1.5     0.01376702     -5417.6791411993 -1.39E-01
   228 Broy./Diag. 0.80E-01    1.5     0.01735135     -5417.1483764949  5.31E-01
   229 Broy./Diag. 0.80E-01    1.5     0.00988633     -5416.9417810486  2.07E-01
   230 Broy./Diag. 0.80E-01    1.5     0.01878711     -5416.7934052633  1.48E-01
   231 Broy./Diag. 0.80E-01    1.5     0.01552080     -5416.5492933347  2.44E-01
   232 Broy./Diag. 0.80E-01    1.5     0.03183636     -5416.9788187759 -4.30E-01
   233 Broy./Diag. 0.80E-01    1.5     0.02860204     -5417.1757576067 -1.97E-01
   234 Broy./Diag. 0.80E-01    1.5     0.04805494     -5417.5245138388 -3.49E-01
   235 Broy./Diag. 0.80E-01    1.5     0.02035165     -5417.1891800164  3.35E-01
   236 Broy./Diag. 0.80E-01    1.5     0.04737179     -5417.1256319907  6.35E-02
   237 Broy./Diag. 0.80E-01    1.5     0.02377926     -5416.5834423460  5.42E-01
   238 Broy./Diag. 0.80E-01    1.5     0.00440187     -5417.2389354694 -6.55E-01
   239 Broy./Diag. 0.80E-01    1.5     0.01995797     -5417.0681392866  1.71E-01
   240 Broy./Diag. 0.80E-01    1.5     0.01979063     -5417.2744113708 -2.06E-01
   241 Broy./Diag. 0.80E-01    1.5     0.07440039     -5417.4481453446 -1.74E-01
   242 Broy./Diag. 0.80E-01    1.5     0.03672994     -5417.4587904872 -1.06E-02
   243 Broy./Diag. 0.80E-01    1.5     0.02046601     -5417.7148749184 -2.56E-01
   244 Broy./Diag. 0.80E-01    1.5     0.00815968     -5417.8798755271 -1.65E-01
   245 Broy./Diag. 0.80E-01    1.5     0.01427079     -5417.8711704804  8.71E-03
   246 Broy./Diag. 0.80E-01    1.5     0.00341948     -5417.9949142508 -1.24E-01
   247 Broy./Diag. 0.80E-01    1.5     0.00465618     -5417.7437120553  2.51E-01
   248 Broy./Diag. 0.80E-01    1.5     0.01018998     -5417.6777777788  6.59E-02
   249 Broy./Diag. 0.80E-01    1.5     0.00265015     -5417.5898378871  8.79E-02
   250 Broy./Diag. 0.80E-01    1.5     0.01447529     -5417.5677073106  2.21E-02
   251 Broy./Diag. 0.80E-01    1.5     0.00946515     -5417.4680922885  9.96E-02
   252 Broy./Diag. 0.80E-01    1.5     0.01108363     -5417.8171820103 -3.49E-01
   253 Broy./Diag. 0.80E-01    1.5     0.01008285     -5417.6241528835  1.93E-01
   254 Broy./Diag. 0.80E-01    1.5     0.01064930     -5417.5029961561  1.21E-01
   255 Broy./Diag. 0.80E-01    1.5     0.01970472     -5417.3420870039  1.61E-01
   256 Broy./Diag. 0.80E-01    1.5     0.01995950     -5417.3945483698 -5.25E-02
   257 Broy./Diag. 0.80E-01    1.5     0.01307363     -5417.5698255406 -1.75E-01
   258 Broy./Diag. 0.80E-01    1.5     0.00570305     -5417.6197038872 -4.99E-02
   259 Broy./Diag. 0.80E-01    1.5     0.01149598     -5417.5202184299  9.95E-02
   260 Broy./Diag. 0.80E-01    1.5     0.01591288     -5417.5636718932 -4.35E-02
   261 Broy./Diag. 0.80E-01    1.5     0.01920603     -5417.5664282422 -2.76E-03
   262 Broy./Diag. 0.80E-01    1.5     0.02493851     -5417.8813917548 -3.15E-01
   263 Broy./Diag. 0.80E-01    1.5     0.00957132     -5417.9513728258 -7.00E-02
   264 Broy./Diag. 0.80E-01    1.5     0.01624532     -5417.7190658934  2.32E-01
   265 Broy./Diag. 0.80E-01    1.5     0.01777035     -5417.6123579595  1.07E-01
   266 Broy./Diag. 0.80E-01    1.5     0.02485768     -5417.8387989174 -2.26E-01
   267 Broy./Diag. 0.80E-01    1.5     0.01392465     -5417.4362827932  4.03E-01
   268 Broy./Diag. 0.80E-01    1.5     0.01636866     -5417.5402540651 -1.04E-01
   269 Broy./Diag. 0.80E-01    1.5     0.01620487     -5417.5483806341 -8.13E-03
   270 Broy./Diag. 0.80E-01    1.5     0.01740429     -5417.6743988943 -1.26E-01
   271 Broy./Diag. 0.80E-01    1.5     0.07118646     -5417.7121330932 -3.77E-02
   272 Broy./Diag. 0.80E-01    1.5     0.02876958     -5417.5098328079  2.02E-01
   273 Broy./Diag. 0.80E-01    1.5     0.00425870     -5417.6172121721 -1.07E-01
   274 Broy./Diag. 0.80E-01    1.5     0.00645755     -5417.5564058163  6.08E-02
   275 Broy./Diag. 0.80E-01    1.5     0.03180493     -5417.4188790114  1.38E-01
   276 Broy./Diag. 0.80E-01    1.5     0.03830142     -5417.4261852998 -7.31E-03
   277 Broy./Diag. 0.80E-01    1.5     0.03927293     -5416.7429541735  6.83E-01
   278 Broy./Diag. 0.80E-01    1.5     0.01092797     -5417.0298559829 -2.87E-01
   279 Broy./Diag. 0.80E-01    1.5     0.01945745     -5416.4478958312  5.82E-01
   280 Broy./Diag. 0.80E-01    1.5     0.05098937     -5417.5422760199 -1.09E+00
   281 Broy./Diag. 0.80E-01    1.5     0.02459286     -5416.7694173458  7.73E-01
   282 Broy./Diag. 0.80E-01    1.5     0.07788515     -5417.5626527061 -7.93E-01
   283 Broy./Diag. 0.80E-01    1.5     0.01762933     -5417.6696607558 -1.07E-01
   284 Broy./Diag. 0.80E-01    1.5     0.06639944     -5417.7249694875 -5.53E-02
   285 Broy./Diag. 0.80E-01    1.5     0.02893941     -5417.6138283678  1.11E-01
   286 Broy./Diag. 0.80E-01    1.5     0.02411016     -5417.5935861815  2.02E-02
   287 Broy./Diag. 0.80E-01    1.5     0.01851376     -5417.5166320549  7.70E-02
   288 Broy./Diag. 0.80E-01    1.5     0.01109873     -5417.6261193193 -1.09E-01
   289 Broy./Diag. 0.80E-01    1.5     0.02458758     -5417.5021424099  1.24E-01
   290 Broy./Diag. 0.80E-01    1.5     0.02721281     -5417.5624455437 -6.03E-02
   291 Broy./Diag. 0.80E-01    1.5     0.01045646     -5417.5954721678 -3.30E-02
   292 Broy./Diag. 0.80E-01    1.5     0.02507668     -5417.4603463877  1.35E-01
   293 Broy./Diag. 0.80E-01    1.5     0.03908809     -5417.2087287439  2.52E-01
   294 Broy./Diag. 0.80E-01    1.5     0.02339878     -5417.2755149549 -6.68E-02
   295 Broy./Diag. 0.80E-01    1.5     0.00667420     -5417.4579711701 -1.82E-01
   296 Broy./Diag. 0.80E-01    1.5     0.07626030     -5417.8068859398 -3.49E-01
   297 Broy./Diag. 0.80E-01    1.5     0.03873833     -5417.5889199586  2.18E-01
   298 Broy./Diag. 0.80E-01    1.5     0.02461389     -5417.4849634760  1.04E-01
   299 Broy./Diag. 0.80E-01    1.5     0.02535107     -5417.2939625380  1.91E-01
   300 Broy./Diag. 0.80E-01    1.5     0.01501277     -5416.9323738078  3.62E-01
   301 Broy./Diag. 0.80E-01    1.5     0.02786990     -5416.9389314537 -6.56E-03
   302 Broy./Diag. 0.80E-01    1.5     0.02842131     -5417.0452462450 -1.06E-01
   303 Broy./Diag. 0.80E-01    1.5     0.03551935     -5417.5912482861 -5.46E-01
   304 Broy./Diag. 0.80E-01    1.5     0.02389647     -5417.6192850974 -2.80E-02
   305 Broy./Diag. 0.80E-01    1.5     0.03177165     -5417.0114423331  6.08E-01
   306 Broy./Diag. 0.80E-01    1.5     0.09369448     -5415.8100691945  1.20E+00
   307 Broy./Diag. 0.80E-01    1.5     0.00977981     -5417.2164656871 -1.41E+00
   308 Broy./Diag. 0.80E-01    1.5     0.01535223     -5416.9504434549  2.66E-01
   309 Broy./Diag. 0.80E-01    1.5     0.01318475     -5417.2777396546 -3.27E-01
   310 Broy./Diag. 0.80E-01    1.5     0.03265295     -5417.3329394006 -5.52E-02
   311 Broy./Diag. 0.80E-01    1.5     0.03172503     -5417.0932203318  2.40E-01
   312 Broy./Diag. 0.80E-01    1.5     0.01718302     -5417.4219017313 -3.29E-01
   313 Broy./Diag. 0.80E-01    1.5     0.03671192     -5417.4114661023  1.04E-02
   314 Broy./Diag. 0.80E-01    1.5     0.06132068     -5417.8827735288 -4.71E-01
   315 Broy./Diag. 0.80E-01    1.5     0.03575494     -5417.4545219951  4.28E-01
   316 Broy./Diag. 0.80E-01    1.5     0.01539562     -5417.3248097394  1.30E-01
   317 Broy./Diag. 0.80E-01    1.5     0.02013774     -5417.3343136991 -9.50E-03
   318 Broy./Diag. 0.80E-01    1.5     0.01028358     -5417.2502859968  8.40E-02
   319 Broy./Diag. 0.80E-01    1.5     0.01686849     -5417.0627581418  1.88E-01
   320 Broy./Diag. 0.80E-01    1.5     0.02930611     -5417.3021475891 -2.39E-01
   321 Broy./Diag. 0.80E-01    1.5     0.00819047     -5417.0552700643  2.47E-01
   322 Broy./Diag. 0.80E-01    1.5     0.02637666     -5417.0347172366  2.06E-02
   323 Broy./Diag. 0.80E-01    1.5     0.02903837     -5417.4768653379 -4.42E-01
   324 Broy./Diag. 0.80E-01    1.5     0.02729134     -5416.8672633124  6.10E-01
   325 Broy./Diag. 0.80E-01    1.5     0.02171231     -5417.0283358893 -1.61E-01
   326 Broy./Diag. 0.80E-01    1.5     0.00709405     -5417.2173037035 -1.89E-01
   327 Broy./Diag. 0.80E-01    1.5     0.03965813     -5417.1939148281  2.34E-02
   328 Broy./Diag. 0.80E-01    1.5     0.01896689     -5417.2744794980 -8.06E-02
   329 Broy./Diag. 0.80E-01    1.5     0.02865678     -5417.4281002542 -1.54E-01
   330 Broy./Diag. 0.80E-01    1.5     0.14797837     -5417.6310632402 -2.03E-01
   331 Broy./Diag. 0.80E-01    1.5     0.07153028     -5417.9149279558 -2.84E-01
   332 Broy./Diag. 0.80E-01    1.5     0.04939721     -5417.7765522979  1.38E-01
   333 Broy./Diag. 0.80E-01    1.5     0.08925175     -5417.4685825874  3.08E-01
   334 Broy./Diag. 0.80E-01    1.5     0.11946860     -5417.4071389404  6.14E-02
   335 Broy./Diag. 0.80E-01    1.5     0.08466458     -5417.5165394122 -1.09E-01
   336 Broy./Diag. 0.80E-01    1.5     0.02703043     -5416.5910267018  9.26E-01
   337 Broy./Diag. 0.80E-01    1.5     0.01217514     -5417.0461529432 -4.55E-01
   338 Broy./Diag. 0.80E-01    1.5     0.03040335     -5416.3833166528  6.63E-01
   339 Broy./Diag. 0.80E-01    1.5     0.01683910     -5416.0602270008  3.23E-01
   340 Broy./Diag. 0.80E-01    1.5     0.04787794     -5415.8571584908  2.03E-01
   341 Broy./Diag. 0.80E-01    1.5     0.01443405     -5415.1635764497  6.94E-01
   342 Broy./Diag. 0.80E-01    1.5     0.02912675     -5415.6569371816 -4.93E-01
   343 Broy./Diag. 0.80E-01    1.5     0.04830185     -5416.9050206626 -1.25E+00
   344 Broy./Diag. 0.80E-01    1.5     0.14516863     -5416.4101226271  4.95E-01
   345 Broy./Diag. 0.80E-01    1.5     0.04884340     -5416.5559257829 -1.46E-01
   346 Broy./Diag. 0.80E-01    1.5     0.05681118     -5416.8907592786 -3.35E-01
   347 Broy./Diag. 0.80E-01    1.5     0.01732214     -5417.2003665464 -3.10E-01
   348 Broy./Diag. 0.80E-01    1.5     0.04535254     -5416.9902191859  2.10E-01
   349 Broy./Diag. 0.80E-01    1.5     0.06203232     -5416.8823610521  1.08E-01
   350 Broy./Diag. 0.80E-01    1.5     0.04828947     -5416.2512251930  6.31E-01
   351 Broy./Diag. 0.80E-01    1.5     0.01526840     -5415.9069154741  3.44E-01
   352 Broy./Diag. 0.80E-01    1.5     0.01503318     -5416.9478998877 -1.04E+00
   353 Broy./Diag. 0.80E-01    1.5     0.02183452     -5417.6075844405 -6.60E-01
   354 Broy./Diag. 0.80E-01    1.5     0.05834089     -5418.7510975081 -1.14E+00
   355 Broy./Diag. 0.80E-01    1.5     0.03378335     -5417.0964766356  1.65E+00
   356 Broy./Diag. 0.80E-01    1.5     0.02087823     -5417.5867795863 -4.90E-01
   357 Broy./Diag. 0.80E-01    1.5     0.07471104     -5416.4156108829  1.17E+00
   358 Broy./Diag. 0.80E-01    1.5     0.07895877     -5415.2365672280  1.18E+00
   359 Broy./Diag. 0.80E-01    1.5     0.08148256     -5415.9549314611 -7.18E-01
   360 Broy./Diag. 0.80E-01    1.5     0.12464408     -5417.7753778970 -1.82E+00
   361 Broy./Diag. 0.80E-01    1.5     0.01766679     -5418.0276484005 -2.52E-01
