 DBCSR| CPU Multiplication driver                                           XSMM (U)
 DBCSR| Multrec recursion limit                                              512 (U)
 DBCSR| Multiplication stack size                                           1000 (D)
 DBCSR| Maximum elements for images                                    UNLIMITED (U)
 DBCSR| Multiplicative factor virtual images                                   1 (U)
 DBCSR| Use multiplication densification                                       T (D)
 DBCSR| Multiplication size stacks                                             3 (U)
 DBCSR| Use memory pool for CPU allocation                                     F (U)
 DBCSR| Number of 3D layers                                               SINGLE (U)
 DBCSR| Use MPI memory allocation                                              F (U)
 DBCSR| Use RMA algorithm                                                      F (U)
 DBCSR| Use Communication thread                                               T (U)
 DBCSR| Communication thread load                                             87 (D)
 DBCSR| MPI: My process id                                                     0
 DBCSR| MPI: Number of processes                                             128
 DBCSR| OMP: Current number of threads                                         1
 DBCSR| OMP: Max number of threads                                             1
 DBCSR| Split modifier for TAS multiplication algorithm                  1.0E+00 (U)


  **** **** ******  **  PROGRAM STARTED AT               2023-02-15 16:38:11.539
 ***** ** ***  *** **   PROGRAM STARTED ON                             nid002604
 **    ****   ******    PROGRAM STARTED BY                                cahart
 ***** **    ** ** **   PROGRAM PROCESS ID                                 16408
  **** **  *******  **  PROGRAM STARTED IN /mnt/lustre/a2fs-work2/work/e05/e05/c
                                           ahart/postdoc/masters/ni/archer2/slab
                                           /optimise/magnetisation/scf_1e-4_temp
                                           -2000_mos-1000_alpha-0.08_beta-1.5_pe
                                           riodic-xyz/search/0.34_0.8

 CP2K| version string:                 CP2K version 2023.1 (Development Version)
 CP2K| source code revision number:                                  git:964cd58
 CP2K| cp2kflags: omp libint fftw3 libxc elpa parallel scalapack xsmm plumed2 mk
 CP2K|            l
 CP2K| is freely available from                            https://www.cp2k.org/
 CP2K| Program compiled at                          Mon 13 Feb 17:05:14 GMT 2023
 CP2K| Program compiled on                                                  ln01
 CP2K| Program compiled for                                              ARCHER2
 CP2K| Data directory path    /work/e05/e05/cahart/cp2k/cp2k-2023.1/cp2k-2023.1-
 CP2K| Input file name                                                  cp2k.inp

 GLOBAL| Force Environment number                                              1
 GLOBAL| Basis set file name                                        BASIS_MOLOPT
 GLOBAL| Potential file name                                      GTH_POTENTIALS
 GLOBAL| MM Potential file name                                     MM_POTENTIAL
 GLOBAL| Coordinate file name                                      __STD_INPUT__
 GLOBAL| Method name                                                        CP2K
 GLOBAL| Project name                                                    Ni_bulk
 GLOBAL| Run type                                                         ENERGY
 GLOBAL| FFT library                                                       FFTW3
 GLOBAL| Diagonalization library                                            ELPA
 GLOBAL| DGEMM library                                                      BLAS
 GLOBAL| Minimum number of eigenvectors for ELPA usage                        16
 GLOBAL| Orthonormality check for eigenvectors                          DISABLED
 GLOBAL| Matrix multiplication library                                 ScaLAPACK
 GLOBAL| All-to-all communication in single precision                          F
 GLOBAL| FFTs using library dependent lengths                                  F
 GLOBAL| Grid backend                                                       AUTO
 GLOBAL| Global print level                                               MEDIUM
 GLOBAL| MPI I/O enabled                                                       T
 GLOBAL| Total number of message passing processes                           128
 GLOBAL| Number of threads for this process                                    1
 GLOBAL| This output is from process                                           0
 GLOBAL| Stack size for threads created by OpenMP (OMP_STACKSIZE)        default
 GLOBAL| CPU model name                          AMD EPYC 7742 64-Core Processor
 GLOBAL| CPUID                                                              1002

 MEMORY| system memory details [Kb]
 MEMORY|                        rank 0           min           max       average
 MEMORY| MemTotal            263528088     263528088     263528088     263528088
 MEMORY| MemFree             238194936     238193856     238194936     238193864
 MEMORY| Buffers                 33628         33628         33628         33628
 MEMORY| Cached                 951896        951820        951896        951820
 MEMORY| Slab                  1664888       1664872       1664888       1664872
 MEMORY| SReclaimable           133900        133900        133900        133900
 MEMORY| MemLikelyFree       239314360     239313204     239314360     239313213


 *** Fundamental physical constants (SI units) ***

 *** Literature: B. J. Mohr and B. N. Taylor,
 ***             CODATA recommended values of the fundamental physical
 ***             constants: 2006, Web Version 5.1
 ***             http://physics.nist.gov/constants

 Speed of light in vacuum [m/s]                             2.99792458000000E+08
 Magnetic constant or permeability of vacuum [N/A**2]       1.25663706143592E-06
 Electric constant or permittivity of vacuum [F/m]          8.85418781762039E-12
 Planck constant (h) [J*s]                                  6.62606896000000E-34
 Planck constant (h-bar) [J*s]                              1.05457162825177E-34
 Elementary charge [C]                                      1.60217648700000E-19
 Electron mass [kg]                                         9.10938215000000E-31
 Electron g factor [ ]                                     -2.00231930436220E+00
 Proton mass [kg]                                           1.67262163700000E-27
 Fine-structure constant                                    7.29735253760000E-03
 Rydberg constant [1/m]                                     1.09737315685270E+07
 Avogadro constant [1/mol]                                  6.02214179000000E+23
 Boltzmann constant [J/K]                                   1.38065040000000E-23
 Atomic mass unit [kg]                                      1.66053878200000E-27
 Bohr radius [m]                                            5.29177208590000E-11

 *** Conversion factors ***

 [u] -> [a.u.]                                              1.82288848426455E+03
 [Angstrom] -> [Bohr] = [a.u.]                              1.88972613288564E+00
 [a.u.] = [Bohr] -> [Angstrom]                              5.29177208590000E-01
 [a.u.] -> [s]                                              2.41888432650478E-17
 [a.u.] -> [fs]                                             2.41888432650478E-02
 [a.u.] -> [J]                                              4.35974393937059E-18
 [a.u.] -> [N]                                              8.23872205491840E-08
 [a.u.] -> [K]                                              3.15774647902944E+05
 [a.u.] -> [kJ/mol]                                         2.62549961709828E+03
 [a.u.] -> [kcal/mol]                                       6.27509468713739E+02
 [a.u.] -> [Pa]                                             2.94210107994716E+13
 [a.u.] -> [bar]                                            2.94210107994716E+08
 [a.u.] -> [atm]                                            2.90362800883016E+08
 [a.u.] -> [eV]                                             2.72113838565563E+01
 [a.u.] -> [Hz]                                             6.57968392072181E+15
 [a.u.] -> [1/cm] (wave numbers)                            2.19474631370540E+05
 [a.u./Bohr**2] -> [1/cm]                                   5.14048714338585E+03
 

 CELL_TOP| Volume [angstrom^3]:                                       983.249569
 CELL_TOP| Vector a [angstrom     7.012     0.000     0.000   |a| =     7.011596
 CELL_TOP| Vector b [angstrom     0.000     7.012     0.000   |b| =     7.011596
 CELL_TOP| Vector c [angstrom     0.000     0.000    20.000   |c| =    20.000000
 CELL_TOP| Angle (b,c), alpha [degree]:                                90.000000
 CELL_TOP| Angle (a,c), beta  [degree]:                                90.000000
 CELL_TOP| Angle (a,b), gamma [degree]:                                90.000000
 CELL_TOP| Numerically orthorhombic:                                         YES
 CELL_TOP| Periodicity                                                       XYZ

 GENERATE|  Preliminary Number of Bonds generated:                             0
 GENERATE|  Achieved consistency in connectivity generation.

 CELL| Volume [angstrom^3]:                                           983.249569
 CELL| Vector a [angstrom]:       7.012     0.000     0.000   |a| =     7.011596
 CELL| Vector b [angstrom]:       0.000     7.012     0.000   |b| =     7.011596
 CELL| Vector c [angstrom]:       0.000     0.000    20.000   |c| =    20.000000
 CELL| Angle (b,c), alpha [degree]:                                    90.000000
 CELL| Angle (a,c), beta  [degree]:                                    90.000000
 CELL| Angle (a,b), gamma [degree]:                                    90.000000
 CELL| Numerically orthorhombic:                                             YES
 CELL| Periodicity                                                           XYZ

 CELL_REF| Volume [angstrom^3]:                                       983.249569
 CELL_REF| Vector a [angstrom     7.012     0.000     0.000   |a| =     7.011596
 CELL_REF| Vector b [angstrom     0.000     7.012     0.000   |b| =     7.011596
 CELL_REF| Vector c [angstrom     0.000     0.000    20.000   |c| =    20.000000
 CELL_REF| Angle (b,c), alpha [degree]:                                90.000000
 CELL_REF| Angle (a,c), beta  [degree]:                                90.000000
 CELL_REF| Angle (a,b), gamma [degree]:                                90.000000
 CELL_REF| Numerically orthorhombic:                                         YES
 CELL_REF| Periodicity                                                       XYZ

 *** WARNING in cryssym.F:165 :: Symmetry library SPGLIB not available ***


 *******************************************************************************
                                    Kpoints
 *******************************************************************************
 BRILLOUIN| K-point scheme                                        Monkhorst-Pack
 BRILLOUIN| K-Point grid                                             4    4    1
 BRILLOUIN| Accuracy in Symmetry determination                      0.100000E-05
 BRILLOUIN| K-Point point group symmetrization                               OFF
 BRILLOUIN| Wavefunction type                                            COMPLEX
 BRILLOUIN| List of Kpoints [2 Pi/Bohr]                                        8
 BRILLOUIN| Number           Weight            X              Y              Z
 BRILLOUIN|     1           0.12500       -0.37500       -0.37500        0.00000
 BRILLOUIN|     2           0.12500       -0.37500       -0.12500        0.00000
 BRILLOUIN|     3           0.12500       -0.37500        0.12500        0.00000
 BRILLOUIN|     4           0.12500       -0.37500        0.37500        0.00000
 BRILLOUIN|     5           0.12500       -0.12500       -0.37500        0.00000
 BRILLOUIN|     6           0.12500       -0.12500       -0.12500        0.00000
 BRILLOUIN|     7           0.12500       -0.12500        0.12500        0.00000
 BRILLOUIN|     8           0.12500       -0.12500        0.37500        0.00000
 *******************************************************************************

 *******************************************************************************
 *******************************************************************************
 **                                                                           **
 **     #####                         ##              ##                      **
 **    ##   ##            ##          ##              ##                      **
 **   ##     ##                       ##            ######                    **
 **   ##     ##  ##   ##  ##   #####  ##  ##   ####   ##    #####    #####    **
 **   ##     ##  ##   ##  ##  ##      ## ##   ##      ##   ##   ##  ##   ##   **
 **   ##  ## ##  ##   ##  ##  ##      ####     ###    ##   ######   ######    **
 **    ##  ###   ##   ##  ##  ##      ## ##      ##   ##   ##       ##        **
 **     #######   #####   ##   #####  ##  ##  ####    ##    #####   ##        **
 **           ##                                                    ##        **
 **                                                                           **
 **                                                ... make the atoms dance   **
 **                                                                           **
 **            Copyright (C) by CP2K developers group (2000-2023)             **
 **                      J. Chem. Phys. 152, 194103 (2020)                    **
 **                                                                           **
 *******************************************************************************

 *** WARNING in qs_environment.F:1456 :: Number of electrons will be ***
 *** overwritten by NELEC_ALPHA and NELEC_BETA, multiplicity will be ***
 *** ignored.                                                        ***

 Number of electrons should be                                               576
 Sum of NELEC_ALPHA and NELEC_BETA is                                    576.000

 *** WARNING in qs_environment.F:1488 :: NELEC_ALPHA is not an integer, ***
 *** many features will not be supported.                               ***


 *** WARNING in qs_environment.F:1500 :: NELEC_BETA is not an integer, ***
 *** many features will not be supported.                              ***


 *** WARNING in qs_environment.F:1532 :: More ADDED_MOs requested for beta ***
 *** spin than available.                                                  ***


 *** WARNING in qs_environment.F:1548 :: More added MOs requested than     ***
 *** available. The full set of unoccupied MOs will be used. Use           ***
 *** 'ADDED_MOS -1' to always use all available MOs and to get rid of this ***
 *** warning.                                                              ***


 DFT| Spin unrestricted (spin-polarized) Kohn-Sham calculation               UKS
 DFT| Multiplicity                                                             1
 DFT| Number of spin states                                                    2
 DFT| Charge                                                                   0
 DFT| Self-interaction correction (SIC)                                       NO
 DFT| Cutoffs: density                                              1.000000E-10
 DFT|          gradient                                             1.000000E-10
 DFT|          tau                                                  1.000000E-10
 DFT|          cutoff_smoothing_range                               0.000000E+00
 DFT| XC density smoothing                                                  NONE
 DFT| XC derivatives                                                          PW

 FUNCTIONAL| PBE:
 FUNCTIONAL| J.P.Perdew, K.Burke, M.Ernzerhof, Phys. Rev. Letter, vol. 77, n 18,
 FUNCTIONAL|  pp. 3865-3868, (1996){spin polarized}                             

 vdW POTENTIAL|                                                   Pair Potential
 vdW POTENTIAL|          DFT-D3 (Version 3.1)
 vdW POTENTIAL|          Potential Form: S. Grimme et al, JCP 132: 154104 (2010)
 vdW POTENTIAL|          Zero Damping
 vdW POTENTIAL|          Cutoff Radius [Bohr]:                             20.00
 vdW POTENTIAL|          s6 Scaling Factor:                               1.0000
 vdW POTENTIAL|          sr6 Scaling Factor:                              1.2170
 vdW POTENTIAL|          s8 Scaling Factor:                               0.7220
 vdW POTENTIAL|          Cutoff for CN calculation:                   0.1000E-05

 QS| Method:                                                                 GPW
 QS| Density plane wave grid type                        NON-SPHERICAL FULLSPACE
 QS| Number of grid levels:                                                    5
 QS| Density cutoff [a.u.]:                                                300.0
 QS| Multi grid cutoff [a.u.]: 1) grid level                               300.0
 QS|                           2) grid level                               100.0
 QS|                           3) grid level                                33.3
 QS|                           4) grid level                                11.1
 QS|                           5) grid level                                 3.7
 QS| Grid level progression factor:                                          3.0
 QS| Relative density cutoff [a.u.]:                                        30.0
 QS| Interaction thresholds: eps_pgf_orb:                                1.0E-06
 QS|                         eps_filter_matrix:                          0.0E+00
 QS|                         eps_core_charge:                            1.0E-14
 QS|                         eps_rho_gspace:                             1.0E-12
 QS|                         eps_rho_rspace:                             1.0E-12
 QS|                         eps_gvg_rspace:                             1.0E-06
 QS|                         eps_ppl:                                    1.0E-02
 QS|                         eps_ppnl:                                   1.0E-08


 ATOMIC KIND INFORMATION

  1. Atomic kind: Ni_i                                  Number of atoms:      16

     Orbital Basis Set                                        DZVP-MOLOPT-SR-GTH

       Number of orbital shell sets:                                           1
       Number of orbital shells:                                               8
       Number of primitive Cartesian functions:                                6
       Number of Cartesian basis functions:                                   31
       Number of spherical basis functions:                                   26
       Norm type:                                                              2

       Normalised Cartesian orbitals:

                        Set   Shell   Orbital            Exponent    Coefficient

                          1       1    2s               10.077428      -0.684558
                                                         5.847736      -0.844524
                                                         2.494033       1.088856
                                                         0.988355       0.395503
                                                         0.344978       0.010224
                                                         0.099466      -0.003250

                          1       2    3s               10.077428       0.096747
                                                         5.847736       0.162504
                                                         2.494033      -0.297192
                                                         0.988355      -0.319752
                                                         0.344978       0.088318
                                                         0.099466       0.118587

                          1       3    4s               10.077428       0.036437
                                                         5.847736      -0.381480
                                                         2.494033       0.003759
                                                         0.988355      -1.048256
                                                         0.344978       0.855825
                                                         0.099466      -0.176350

                          1       4    3px              10.077428      -3.133913
                                                         5.847736       3.027656
                                                         2.494033       2.353227
                                                         0.988355       0.554184
                                                         0.344978       0.019462
                                                         0.099466      -0.000291
                          1       4    3py              10.077428      -3.133913
                                                         5.847736       3.027656
                                                         2.494033       2.353227
                                                         0.988355       0.554184
                                                         0.344978       0.019462
                                                         0.099466      -0.000291
                          1       4    3pz              10.077428      -3.133913
                                                         5.847736       3.027656
                                                         2.494033       2.353227
                                                         0.988355       0.554184
                                                         0.344978       0.019462
                                                         0.099466      -0.000291

                          1       5    4px              10.077428      -0.112729
                                                         5.847736      -0.114008
                                                         2.494033      -0.347303
                                                         0.988355      -0.110323
                                                         0.344978       0.154096
                                                         0.099466       0.058386
                          1       5    4py              10.077428      -0.112729
                                                         5.847736      -0.114008
                                                         2.494033      -0.347303
                                                         0.988355      -0.110323
                                                         0.344978       0.154096
                                                         0.099466       0.058386
                          1       5    4pz              10.077428      -0.112729
                                                         5.847736      -0.114008
                                                         2.494033      -0.347303
                                                         0.988355      -0.110323
                                                         0.344978       0.154096
                                                         0.099466       0.058386

                          1       6    4dx2             10.077428       8.232726
                                                         5.847736       9.105758
                                                         2.494033       2.849835
                                                         0.988355       0.554319
                                                         0.344978       0.067245
                                                         0.099466       0.001940
                          1       6    4dxy             10.077428      14.259500
                                                         5.847736      15.771636
                                                         2.494033       4.936060
                                                         0.988355       0.960109
                                                         0.344978       0.116472
                                                         0.099466       0.003360
                          1       6    4dxz             10.077428      14.259500
                                                         5.847736      15.771636
                                                         2.494033       4.936060
                                                         0.988355       0.960109
                                                         0.344978       0.116472
                                                         0.099466       0.003360
                          1       6    4dy2             10.077428       8.232726
                                                         5.847736       9.105758
                                                         2.494033       2.849835
                                                         0.988355       0.554319
                                                         0.344978       0.067245
                                                         0.099466       0.001940
                          1       6    4dyz             10.077428      14.259500
                                                         5.847736      15.771636
                                                         2.494033       4.936060
                                                         0.988355       0.960109
                                                         0.344978       0.116472
                                                         0.099466       0.003360
                          1       6    4dz2             10.077428       8.232726
                                                         5.847736       9.105758
                                                         2.494033       2.849835
                                                         0.988355       0.554319
                                                         0.344978       0.067245
                                                         0.099466       0.001940

                          1       7    5dx2             10.077428      -2.715373
                                                         5.847736      -4.020640
                                                         2.494033      -1.397569
                                                         0.988355      -0.076143
                                                         0.344978       0.033435
                                                         0.099466       0.026032
                          1       7    5dxy             10.077428      -4.703164
                                                         5.847736      -6.963952
                                                         2.494033      -2.420661
                                                         0.988355      -0.131883
                                                         0.344978       0.057911
                                                         0.099466       0.045088
                          1       7    5dxz             10.077428      -4.703164
                                                         5.847736      -6.963952
                                                         2.494033      -2.420661
                                                         0.988355      -0.131883
                                                         0.344978       0.057911
                                                         0.099466       0.045088
                          1       7    5dy2             10.077428      -2.715373
                                                         5.847736      -4.020640
                                                         2.494033      -1.397569
                                                         0.988355      -0.076143
                                                         0.344978       0.033435
                                                         0.099466       0.026032
                          1       7    5dyz             10.077428      -4.703164
                                                         5.847736      -6.963952
                                                         2.494033      -2.420661
                                                         0.988355      -0.131883
                                                         0.344978       0.057911
                                                         0.099466       0.045088
                          1       7    5dz2             10.077428      -2.715373
                                                         5.847736      -4.020640
                                                         2.494033      -1.397569
                                                         0.988355      -0.076143
                                                         0.344978       0.033435
                                                         0.099466       0.026032

                          1       8    5fx3             10.077428      -0.467694
                                                         5.847736       0.618100
                                                         2.494033       0.066069
                                                         0.988355       0.262898
                                                         0.344978       0.004720
                                                         0.099466       0.007748
                          1       8    5fx2y            10.077428      -1.045795
                                                         5.847736       1.382114
                                                         2.494033       0.147734
                                                         0.988355       0.587859
                                                         0.344978       0.010555
                                                         0.099466       0.017325
                          1       8    5fx2z            10.077428      -1.045795
                                                         5.847736       1.382114
                                                         2.494033       0.147734
                                                         0.988355       0.587859
                                                         0.344978       0.010555
                                                         0.099466       0.017325
                          1       8    5fxy2            10.077428      -1.045795
                                                         5.847736       1.382114
                                                         2.494033       0.147734
                                                         0.988355       0.587859
                                                         0.344978       0.010555
                                                         0.099466       0.017325
                          1       8    5fxyz            10.077428      -1.811371
                                                         5.847736       2.393892
                                                         2.494033       0.255883
                                                         0.988355       1.018201
                                                         0.344978       0.018282
                                                         0.099466       0.030008
                          1       8    5fxz2            10.077428      -1.045795
                                                         5.847736       1.382114
                                                         2.494033       0.147734
                                                         0.988355       0.587859
                                                         0.344978       0.010555
                                                         0.099466       0.017325
                          1       8    5fy3             10.077428      -0.467694
                                                         5.847736       0.618100
                                                         2.494033       0.066069
                                                         0.988355       0.262898
                                                         0.344978       0.004720
                                                         0.099466       0.007748
                          1       8    5fy2z            10.077428      -1.045795
                                                         5.847736       1.382114
                                                         2.494033       0.147734
                                                         0.988355       0.587859
                                                         0.344978       0.010555
                                                         0.099466       0.017325
                          1       8    5fyz2            10.077428      -1.045795
                                                         5.847736       1.382114
                                                         2.494033       0.147734
                                                         0.988355       0.587859
                                                         0.344978       0.010555
                                                         0.099466       0.017325
                          1       8    5fz3             10.077428      -0.467694
                                                         5.847736       0.618100
                                                         2.494033       0.066069
                                                         0.988355       0.262898
                                                         0.344978       0.004720
                                                         0.099466       0.007748

       Atomic covalent radius [Angstrom]:                                  1.150

       Atomic van der Waals radius [Angstrom]:                             1.630

     GTH Potential information for                                   GTH-PBE-q18

       Description:                       Goedecker-Teter-Hutter pseudopotential
                                           Goedecker et al., PRB 54, 1703 (1996)
                                          Hartwigsen et al., PRB 58, 3641 (1998)
                                                      Krack, TCA 114, 145 (2005)

       Gaussian exponent of the core charge distribution:               4.081633
       Electronic configuration (s p d ...):                           4   6   8

       Parameters of the local part of the GTH pseudopotential:

                          rloc        C1          C2          C3          C4
                        0.350000    2.102166    0.648484

       Parameters of the non-local part of the GTH pseudopotential:

                   l      r(l)      h(i,j,l)

                   0    0.261295    0.622658    9.970227
                                    9.970227  -12.871507
                   1    0.224253  -11.142708   12.429566
                                   12.429566  -14.706861
                   2    0.215348  -12.628146

  2. Atomic kind: Ni_b                                  Number of atoms:      16

     Orbital Basis Set                                        DZVP-MOLOPT-SR-GTH

       Number of orbital shell sets:                                           1
       Number of orbital shells:                                               8
       Number of primitive Cartesian functions:                                6
       Number of Cartesian basis functions:                                   31
       Number of spherical basis functions:                                   26
       Norm type:                                                              2

       Normalised Cartesian orbitals:

                        Set   Shell   Orbital            Exponent    Coefficient

                          1       1    2s               10.077428      -0.684558
                                                         5.847736      -0.844524
                                                         2.494033       1.088856
                                                         0.988355       0.395503
                                                         0.344978       0.010224
                                                         0.099466      -0.003250

                          1       2    3s               10.077428       0.096747
                                                         5.847736       0.162504
                                                         2.494033      -0.297192
                                                         0.988355      -0.319752
                                                         0.344978       0.088318
                                                         0.099466       0.118587

                          1       3    4s               10.077428       0.036437
                                                         5.847736      -0.381480
                                                         2.494033       0.003759
                                                         0.988355      -1.048256
                                                         0.344978       0.855825
                                                         0.099466      -0.176350

                          1       4    3px              10.077428      -3.133913
                                                         5.847736       3.027656
                                                         2.494033       2.353227
                                                         0.988355       0.554184
                                                         0.344978       0.019462
                                                         0.099466      -0.000291
                          1       4    3py              10.077428      -3.133913
                                                         5.847736       3.027656
                                                         2.494033       2.353227
                                                         0.988355       0.554184
                                                         0.344978       0.019462
                                                         0.099466      -0.000291
                          1       4    3pz              10.077428      -3.133913
                                                         5.847736       3.027656
                                                         2.494033       2.353227
                                                         0.988355       0.554184
                                                         0.344978       0.019462
                                                         0.099466      -0.000291

                          1       5    4px              10.077428      -0.112729
                                                         5.847736      -0.114008
                                                         2.494033      -0.347303
                                                         0.988355      -0.110323
                                                         0.344978       0.154096
                                                         0.099466       0.058386
                          1       5    4py              10.077428      -0.112729
                                                         5.847736      -0.114008
                                                         2.494033      -0.347303
                                                         0.988355      -0.110323
                                                         0.344978       0.154096
                                                         0.099466       0.058386
                          1       5    4pz              10.077428      -0.112729
                                                         5.847736      -0.114008
                                                         2.494033      -0.347303
                                                         0.988355      -0.110323
                                                         0.344978       0.154096
                                                         0.099466       0.058386

                          1       6    4dx2             10.077428       8.232726
                                                         5.847736       9.105758
                                                         2.494033       2.849835
                                                         0.988355       0.554319
                                                         0.344978       0.067245
                                                         0.099466       0.001940
                          1       6    4dxy             10.077428      14.259500
                                                         5.847736      15.771636
                                                         2.494033       4.936060
                                                         0.988355       0.960109
                                                         0.344978       0.116472
                                                         0.099466       0.003360
                          1       6    4dxz             10.077428      14.259500
                                                         5.847736      15.771636
                                                         2.494033       4.936060
                                                         0.988355       0.960109
                                                         0.344978       0.116472
                                                         0.099466       0.003360
                          1       6    4dy2             10.077428       8.232726
                                                         5.847736       9.105758
                                                         2.494033       2.849835
                                                         0.988355       0.554319
                                                         0.344978       0.067245
                                                         0.099466       0.001940
                          1       6    4dyz             10.077428      14.259500
                                                         5.847736      15.771636
                                                         2.494033       4.936060
                                                         0.988355       0.960109
                                                         0.344978       0.116472
                                                         0.099466       0.003360
                          1       6    4dz2             10.077428       8.232726
                                                         5.847736       9.105758
                                                         2.494033       2.849835
                                                         0.988355       0.554319
                                                         0.344978       0.067245
                                                         0.099466       0.001940

                          1       7    5dx2             10.077428      -2.715373
                                                         5.847736      -4.020640
                                                         2.494033      -1.397569
                                                         0.988355      -0.076143
                                                         0.344978       0.033435
                                                         0.099466       0.026032
                          1       7    5dxy             10.077428      -4.703164
                                                         5.847736      -6.963952
                                                         2.494033      -2.420661
                                                         0.988355      -0.131883
                                                         0.344978       0.057911
                                                         0.099466       0.045088
                          1       7    5dxz             10.077428      -4.703164
                                                         5.847736      -6.963952
                                                         2.494033      -2.420661
                                                         0.988355      -0.131883
                                                         0.344978       0.057911
                                                         0.099466       0.045088
                          1       7    5dy2             10.077428      -2.715373
                                                         5.847736      -4.020640
                                                         2.494033      -1.397569
                                                         0.988355      -0.076143
                                                         0.344978       0.033435
                                                         0.099466       0.026032
                          1       7    5dyz             10.077428      -4.703164
                                                         5.847736      -6.963952
                                                         2.494033      -2.420661
                                                         0.988355      -0.131883
                                                         0.344978       0.057911
                                                         0.099466       0.045088
                          1       7    5dz2             10.077428      -2.715373
                                                         5.847736      -4.020640
                                                         2.494033      -1.397569
                                                         0.988355      -0.076143
                                                         0.344978       0.033435
                                                         0.099466       0.026032

                          1       8    5fx3             10.077428      -0.467694
                                                         5.847736       0.618100
                                                         2.494033       0.066069
                                                         0.988355       0.262898
                                                         0.344978       0.004720
                                                         0.099466       0.007748
                          1       8    5fx2y            10.077428      -1.045795
                                                         5.847736       1.382114
                                                         2.494033       0.147734
                                                         0.988355       0.587859
                                                         0.344978       0.010555
                                                         0.099466       0.017325
                          1       8    5fx2z            10.077428      -1.045795
                                                         5.847736       1.382114
                                                         2.494033       0.147734
                                                         0.988355       0.587859
                                                         0.344978       0.010555
                                                         0.099466       0.017325
                          1       8    5fxy2            10.077428      -1.045795
                                                         5.847736       1.382114
                                                         2.494033       0.147734
                                                         0.988355       0.587859
                                                         0.344978       0.010555
                                                         0.099466       0.017325
                          1       8    5fxyz            10.077428      -1.811371
                                                         5.847736       2.393892
                                                         2.494033       0.255883
                                                         0.988355       1.018201
                                                         0.344978       0.018282
                                                         0.099466       0.030008
                          1       8    5fxz2            10.077428      -1.045795
                                                         5.847736       1.382114
                                                         2.494033       0.147734
                                                         0.988355       0.587859
                                                         0.344978       0.010555
                                                         0.099466       0.017325
                          1       8    5fy3             10.077428      -0.467694
                                                         5.847736       0.618100
                                                         2.494033       0.066069
                                                         0.988355       0.262898
                                                         0.344978       0.004720
                                                         0.099466       0.007748
                          1       8    5fy2z            10.077428      -1.045795
                                                         5.847736       1.382114
                                                         2.494033       0.147734
                                                         0.988355       0.587859
                                                         0.344978       0.010555
                                                         0.099466       0.017325
                          1       8    5fyz2            10.077428      -1.045795
                                                         5.847736       1.382114
                                                         2.494033       0.147734
                                                         0.988355       0.587859
                                                         0.344978       0.010555
                                                         0.099466       0.017325
                          1       8    5fz3             10.077428      -0.467694
                                                         5.847736       0.618100
                                                         2.494033       0.066069
                                                         0.988355       0.262898
                                                         0.344978       0.004720
                                                         0.099466       0.007748

       Atomic covalent radius [Angstrom]:                                  1.150

       Atomic van der Waals radius [Angstrom]:                             1.630

     GTH Potential information for                                   GTH-PBE-q18

       Description:                       Goedecker-Teter-Hutter pseudopotential
                                           Goedecker et al., PRB 54, 1703 (1996)
                                          Hartwigsen et al., PRB 58, 3641 (1998)
                                                      Krack, TCA 114, 145 (2005)

       Gaussian exponent of the core charge distribution:               4.081633
       Electronic configuration (s p d ...):                           4   6   8

       Parameters of the local part of the GTH pseudopotential:

                          rloc        C1          C2          C3          C4
                        0.350000    2.102166    0.648484

       Parameters of the non-local part of the GTH pseudopotential:

                   l      r(l)      h(i,j,l)

                   0    0.261295    0.622658    9.970227
                                    9.970227  -12.871507
                   1    0.224253  -11.142708   12.429566
                                   12.429566  -14.706861
                   2    0.215348  -12.628146


 MOLECULE KIND INFORMATION


 All atoms are their own molecule, skipping detailed information


 TOTAL NUMBERS AND MAXIMUM NUMBERS

  Total number of            - Atomic kinds:                                   2
                             - Atoms:                                         32
                             - Shell sets:                                    32
                             - Shells:                                       256
                             - Primitive Cartesian functions:                192
                             - Cartesian basis functions:                    992
                             - Spherical basis functions:                    832

  Maximum angular momentum of- Orbital basis functions:                        3
                             - Local part of the GTH pseudopotential:          2
                             - Non-local part of the GTH pseudopotential:      3


 MODULE QUICKSTEP: ATOMIC COORDINATES IN ANGSTROM

   Atom Kind Element         X             Y             Z       Z(eff)     Mass
      1    1 Ni   28      0.876298      0.876298      7.370500  18.0000  58.6934
      2    1 Ni   28      0.876298      4.382298      7.370500  18.0000  58.6934
      3    1 Ni   28      2.629298      2.629298      7.370500  18.0000  58.6934
      4    1 Ni   28      2.629298      6.135298      7.370500  18.0000  58.6934
      5    1 Ni   28      4.382298      0.876298      7.370500  18.0000  58.6934
      6    1 Ni   28      4.382298      4.382298      7.370500  18.0000  58.6934
      7    1 Ni   28      6.135298      2.629298      7.370500  18.0000  58.6934
      8    1 Ni   28      6.135298      6.135298      7.370500  18.0000  58.6934
      9    2 Ni   28      0.876298      2.629298      9.123500  18.0000  58.6934
     10    2 Ni   28      0.876298      6.135298      9.123500  18.0000  58.6934
     11    2 Ni   28      2.629298      0.876298      9.123500  18.0000  58.6934
     12    2 Ni   28      2.629298      4.382298      9.123500  18.0000  58.6934
     13    2 Ni   28      4.382298      2.629298      9.123500  18.0000  58.6934
     14    2 Ni   28      4.382298      6.135298      9.123500  18.0000  58.6934
     15    2 Ni   28      6.135298      0.876298      9.123500  18.0000  58.6934
     16    2 Ni   28      6.135298      4.382298      9.123500  18.0000  58.6934
     17    2 Ni   28      0.876298      0.876298     10.876500  18.0000  58.6934
     18    2 Ni   28      0.876298      4.382298     10.876500  18.0000  58.6934
     19    2 Ni   28      2.629298      2.629298     10.876500  18.0000  58.6934
     20    2 Ni   28      2.629298      6.135298     10.876500  18.0000  58.6934
     21    2 Ni   28      4.382298      0.876298     10.876500  18.0000  58.6934
     22    2 Ni   28      4.382298      4.382298     10.876500  18.0000  58.6934
     23    2 Ni   28      6.135298      2.629298     10.876500  18.0000  58.6934
     24    2 Ni   28      6.135298      6.135298     10.876500  18.0000  58.6934
     25    1 Ni   28      0.876298      2.629298     12.629500  18.0000  58.6934
     26    1 Ni   28      0.876298      6.135298     12.629500  18.0000  58.6934
     27    1 Ni   28      2.629298      0.876298     12.629500  18.0000  58.6934
     28    1 Ni   28      2.629298      4.382298     12.629500  18.0000  58.6934
     29    1 Ni   28      4.382298      2.629298     12.629500  18.0000  58.6934
     30    1 Ni   28      4.382298      6.135298     12.629500  18.0000  58.6934
     31    1 Ni   28      6.135298      0.876298     12.629500  18.0000  58.6934
     32    1 Ni   28      6.135298      4.382298     12.629500  18.0000  58.6934



 SCF PARAMETERS         Density guess:                                    ATOMIC
                        --------------------------------------------------------
                        max_scf:                                             500
                        max_scf_history:                                       0
                        max_diis:                                              4
                        --------------------------------------------------------
                        eps_scf:                                        1.00E-04
                        eps_scf_history:                                0.00E+00
                        eps_diis:                                       1.00E-01
                        eps_eigval:                                     1.00E-05
                        --------------------------------------------------------
                        level_shift [a.u.]:                             0.000000
                        added MOs                                       534  553
                        --------------------------------------------------------
                        Mixing method:                            BROYDEN_MIXING
                                                charge density mixing in g-space
                        --------------------------------------------------------
                        Smear method:                                FERMI_DIRAC
                        Electronic temperature [K]:                       2000.0
                        Electronic temperature [a.u.]:                  6.33E-03
                        Accuracy threshold:                             1.00E-10
                        --------------------------------------------------------
                        No outer SCF

 PW_GRID| Information for grid number                                          1
 PW_GRID| Grid distributed over                                   128 processors
 PW_GRID| Real space group dimensions                                     8   16
 PW_GRID| the grid is blocked:                                               YES
 PW_GRID| Cutoff [a.u.]                                                    300.0
 PW_GRID| spherical cutoff:                                                   NO
 PW_GRID|   Bounds   1            -54      53                Points:         108
 PW_GRID|   Bounds   2            -54      53                Points:         108
 PW_GRID|   Bounds   3           -150     149                Points:         300
 PW_GRID| Volume element (a.u.^3)  0.1896E-02     Volume (a.u.^3)      6635.2971
 PW_GRID| Grid span                                                    FULLSPACE
 PW_GRID|   Distribution                         Average         Max         Min
 PW_GRID|   G-Vectors                            27337.5       28728       25272
 PW_GRID|   G-Rays                                 253.1         266         234
 PW_GRID|   Real Space Points                    27337.5       28728       25272

 PW_GRID| Information for grid number                                          2
 PW_GRID| Number of the reference grid                                         1
 PW_GRID| Grid distributed over                                   128 processors
 PW_GRID| Real space group dimensions                                     8   16
 PW_GRID| the grid is blocked:                                                NO
 PW_GRID| Cutoff [a.u.]                                                    100.0
 PW_GRID| spherical cutoff:                                                   NO
 PW_GRID|   Bounds   1            -30      29                Points:          60
 PW_GRID|   Bounds   2            -30      29                Points:          60
 PW_GRID|   Bounds   3            -90      89                Points:         180
 PW_GRID| Volume element (a.u.^3)  0.1024E-01     Volume (a.u.^3)      6635.2971
 PW_GRID| Grid span                                                    FULLSPACE
 PW_GRID|   Distribution                         Average         Max         Min
 PW_GRID|   G-Vectors                             5062.5       15960           0
 PW_GRID|   G-Rays                                  84.4         266           0
 PW_GRID|   Real Space Points                     5062.5        5760        3780

 PW_GRID| Information for grid number                                          3
 PW_GRID| Number of the reference grid                                         1
 PW_GRID| Grid distributed over                                   128 processors
 PW_GRID| Real space group dimensions                                     8   16
 PW_GRID| the grid is blocked:                                                NO
 PW_GRID| Cutoff [a.u.]                                                     33.3
 PW_GRID| spherical cutoff:                                                   NO
 PW_GRID|   Bounds   1            -18      17                Points:          36
 PW_GRID|   Bounds   2            -18      17                Points:          36
 PW_GRID|   Bounds   3            -50      49                Points:         100
 PW_GRID| Volume element (a.u.^3)  0.5120E-01     Volume (a.u.^3)      6635.2971
 PW_GRID| Grid span                                                    FULLSPACE
 PW_GRID|   Distribution                         Average         Max         Min
 PW_GRID|   G-Vectors                             1012.5        9576           0
 PW_GRID|   G-Rays                                  28.1         266           0
 PW_GRID|   Real Space Points                     1012.5        1500         800

 PW_GRID| Information for grid number                                          4
 PW_GRID| Number of the reference grid                                         1
 PW_GRID| Grid distributed over                                   128 processors
 PW_GRID| Real space group dimensions                                     8   16
 PW_GRID| the grid is blocked:                                                NO
 PW_GRID| Cutoff [a.u.]                                                     11.1
 PW_GRID| spherical cutoff:                                                   NO
 PW_GRID|   Bounds   1            -10       9                Points:          20
 PW_GRID|   Bounds   2            -10       9                Points:          20
 PW_GRID|   Bounds   3            -30      29                Points:          60
 PW_GRID| Volume element (a.u.^3)  0.2765         Volume (a.u.^3)      6635.2971
 PW_GRID| Grid span                                                    FULLSPACE
 PW_GRID|   Distribution                         Average         Max         Min
 PW_GRID|   G-Vectors                              187.5        3800           0
 PW_GRID|   G-Rays                                   9.4         190           0
 PW_GRID|   Real Space Points                      187.5         360         120

 PW_GRID| Information for grid number                                          5
 PW_GRID| Number of the reference grid                                         1
 PW_GRID| Grid distributed over                                   128 processors
 PW_GRID| Real space group dimensions                                     8   16
 PW_GRID| the grid is blocked:                                                NO
 PW_GRID| Cutoff [a.u.]                                                      3.7
 PW_GRID| spherical cutoff:                                                   NO
 PW_GRID|   Bounds   1             -6       5                Points:          12
 PW_GRID|   Bounds   2             -6       5                Points:          12
 PW_GRID|   Bounds   3            -18      17                Points:          36
 PW_GRID| Volume element (a.u.^3)   1.280         Volume (a.u.^3)      6635.2971
 PW_GRID| Grid span                                                    FULLSPACE
 PW_GRID|   Distribution                         Average         Max         Min
 PW_GRID|   G-Vectors                               40.5        1296           0
 PW_GRID|   G-Rays                                   3.4         108           0
 PW_GRID|   Real Space Points                       40.5          72           0

 POISSON| Solver                                                        PERIODIC
 POISSON| Periodicity                                                        XYZ

 RS_GRID| Information for grid number                                          1
 RS_GRID|   Bounds   1            -54      53                Points:         108
 RS_GRID|   Bounds   2            -54      53                Points:         108
 RS_GRID|   Bounds   3           -150     149                Points:         300
 RS_GRID| Real space distribution over                                  8 groups
 RS_GRID| Real space distribution along direction                              2
 RS_GRID| Border size                                                         28
 RS_GRID| Real space distribution over                                 16 groups
 RS_GRID| Real space distribution along direction                              3
 RS_GRID| Border size                                                         28
 RS_GRID|   Distribution                         Average         Max         Min
 RS_GRID|   Planes                                  69.5          70          69
 RS_GRID|   Distribution                         Average         Max         Min
 RS_GRID|   Planes                                  74.8          75          74

 RS_GRID| Information for grid number                                          2
 RS_GRID|   Bounds   1            -30      29                Points:          60
 RS_GRID|   Bounds   2            -30      29                Points:          60
 RS_GRID|   Bounds   3            -90      89                Points:         180
 RS_GRID| Real space fully replicated
 RS_GRID| Group size                                                           1

 RS_GRID| Information for grid number                                          3
 RS_GRID|   Bounds   1            -18      17                Points:          36
 RS_GRID|   Bounds   2            -18      17                Points:          36
 RS_GRID|   Bounds   3            -50      49                Points:         100
 RS_GRID| Real space fully replicated
 RS_GRID| Group size                                                           1

 RS_GRID| Information for grid number                                          4
 RS_GRID|   Bounds   1            -10       9                Points:          20
 RS_GRID|   Bounds   2            -10       9                Points:          20
 RS_GRID|   Bounds   3            -30      29                Points:          60
 RS_GRID| Real space fully replicated
 RS_GRID| Group size                                                           1

 RS_GRID| Information for grid number                                          5
 RS_GRID|   Bounds   1             -6       5                Points:          12
 RS_GRID|   Bounds   2             -6       5                Points:          12
 RS_GRID|   Bounds   3            -18      17                Points:          36
 RS_GRID| Real space fully replicated
 RS_GRID| Group size                                                           1

 Spin 1

 Number of electrons:                                                        297.120
 Number of occupied orbitals:                                                298
 Number of molecular orbitals:                                               832

 Spin 2

 Number of electrons:                                                        278.880
 Number of occupied orbitals:                                                279
 Number of molecular orbitals:                                               832

 Number of orbital functions:                                                832
 Number of independent orbital functions:                                    832

 Extrapolation method: initial_guess

 Atomic guess: The first density matrix is obtained in terms of atomic orbitals
               and electronic configurations assigned to each atomic kind

 Guess for atomic kind: Ni_i

 Electronic structure
    Total number of core electrons                                         10.00
    Total number of valence electrons                                      18.00
    Total number of electrons                                              28.00
    Multiplicity                                                         doublet
    Alpha Electrons
    S   [  1.00  1.00] 1.00  1.00
    P   [  3.00] 3.00
    D      4.40
    Beta Electrons
    S   [  1.00  1.00] 1.00  1.00
    P   [  3.00] 3.00
    D      3.60


 *******************************************************************************
                  Iteration          Convergence                     Energy [au]
 *******************************************************************************
                          1         1.51750                    -167.068932204718
                          2         15.5935                    -156.656530566819
                          3         2.37322                    -168.320625176021
                          4        0.215236                    -168.611142488999
                          5        0.864690E-01                -168.614185977773
                          6        0.204270E-01                -168.614864366588
                          7        0.117629E-02                -168.614962284536
                          8        0.143499E-02                -168.614962241165
                          9        0.165550E-03                -168.614962454733
                         10        0.801651E-03                -168.614962414936
                         11        0.526340E-03                -168.614962440154
                         12        0.114214E-03                -168.614962458210
                         13        0.974554E-04                -168.614962459061
                         14        0.103837E-03                -168.614962459937
                         15        0.922182E-04                -168.614962460311
                         16        0.489415E-04                -168.614962460739
                         17        0.376531E-04                -168.614962461148
                         18        0.319337E-04                -168.614962461185
                         19        0.537275E-04                -168.614962461068
                         20        0.409549E-04                -168.614962461145
                         21        0.226152E-04                -168.614962461237
                         22        0.174462E-04                -168.614962461257
                         23        0.165586E-04                -168.614962461260
                         24        0.160650E-04                -168.614962461262
                         25        0.113583E-04                -168.614962461280
                         26        0.503754E-05                -168.614962461287
                         27        0.239088E-05                -168.614962461289
                         28        0.206656E-05                -168.614962461289
                         29        0.678810E-06                -168.614962461289

 Energy components [Hartree]           Total Energy ::         -168.614962461289
                                        Band Energy ::          -26.570438398031
                                     Kinetic Energy ::           97.308645535822
                                   Potential Energy ::         -265.923607997111
                                      Virial (-V/T) ::            2.732785011371
                                        Core Energy ::         -299.569105195415
                                          XC Energy ::          -16.228812263913
                                     Coulomb Energy ::          147.182954998038
                       Total Pseudopotential Energy ::         -396.964091881334
                       Local Pseudopotential Energy ::         -362.650332264705
                    Nonlocal Pseudopotential Energy ::          -34.313759616629
                                        Confinement ::            0.863411500974

 Orbital energies  State     Spin  L     Occupation   Energy[a.u.]    Energy[eV]

                       1    alpha  0          1.000      -4.174802   -113.602130
                       2    alpha  0          1.000      -0.181779     -4.946449
                       1     beta  0          1.000      -4.138200   -112.606137
                       2     beta  0          1.000      -0.175997     -4.789129

                       1    alpha  1          3.000      -2.580817    -70.227599
                       1     beta  1          3.000      -2.545205    -69.258560

                       1    alpha  2          4.400      -0.328813     -8.947444
                       1     beta  2          3.600      -0.298561     -8.124256


 Total Electron Density at R=0:                                         0.030417

 Guess for atomic kind: Ni_b

 Electronic structure
    Total number of core electrons                                         10.00
    Total number of valence electrons                                      18.00
    Total number of electrons                                              28.00
    Multiplicity                                                         singlet
    Alpha Electrons
    S   [  1.00  1.00] 1.00  1.00
    P   [  3.00] 3.00
    D      4.17
    Beta Electrons
    S   [  1.00  1.00] 1.00  1.00
    P   [  3.00] 3.00
    D      3.83


 *******************************************************************************
                  Iteration          Convergence                     Energy [au]
 *******************************************************************************
                          1         1.51652                    -167.063662246171
                          2         14.6532                    -156.607975099372
                          3         2.19215                    -168.316160284925
                          4        0.174753                    -168.606818441862
                          5        0.620255E-01                -168.609597910556
                          6        0.911917E-02                -168.609987613702
                          7        0.809236E-02                -168.609999187264
                          8        0.558028E-02                -168.610001630790
                          9        0.113681E-02                -168.610004632053
                         10        0.244865E-02                -168.610004304032
                         11        0.897138E-03                -168.610004706533
                         12        0.150054E-03                -168.610004796217
                         13        0.771472E-04                -168.610004796672
                         14        0.722252E-04                -168.610004797340
                         15        0.127041E-03                -168.610004795073
                         16        0.633141E-04                -168.610004797560
                         17        0.218050E-04                -168.610004797774
                         18        0.259003E-04                -168.610004797839
                         19        0.189505E-04                -168.610004797863
                         20        0.209215E-04                -168.610004797852
                         21        0.145711E-04                -168.610004797878
                         22        0.768940E-05                -168.610004797891
                         23        0.670637E-05                -168.610004797896
                         24        0.381257E-05                -168.610004797897
                         25        0.259304E-05                -168.610004797898
                         26        0.167420E-05                -168.610004797899
                         27        0.106543E-05                -168.610004797899
                         28        0.134371E-05                -168.610004797900
                         29        0.417128E-06                -168.610004797900

 Energy components [Hartree]           Total Energy ::         -168.610004797900
                                        Band Energy ::          -26.568071230223
                                     Kinetic Energy ::           97.301945582265
                                   Potential Energy ::         -265.911950380165
                                      Virial (-V/T) ::            2.732853375016
                                        Core Energy ::         -299.565189302759
                                          XC Energy ::          -16.223139147481
                                     Coulomb Energy ::          147.178323652340
                       Total Pseudopotential Energy ::         -396.953475303089
                       Local Pseudopotential Energy ::         -362.643227871867
                    Nonlocal Pseudopotential Energy ::          -34.310247431223
                                        Confinement ::            0.863404180652

 Orbital energies  State     Spin  L     Occupation   Energy[a.u.]    Energy[eV]

                       1    alpha  0          1.000      -4.164812   -113.330292
                       2    alpha  0          1.000      -0.180164     -4.902507
                       1     beta  0          1.000      -4.149256   -112.906998
                       2     beta  0          1.000      -0.177708     -4.835668

                       1    alpha  1          3.000      -2.571097    -69.963095
                       1     beta  1          3.000      -2.555962    -69.551260

                       1    alpha  2          4.170      -0.320525     -8.721939
                       1     beta  2          3.830      -0.307667     -8.372055


 Total Electron Density at R=0:                                         0.030433

 Spin 1
 Re-scaling the density matrix to get the right number of electrons for spin 1
                  # Electrons              Trace(P)               Scaling factor
                        297.120             297.120                        1.000

 Spin 2
 Re-scaling the density matrix to get the right number of electrons for spin 2
                  # Electrons              Trace(P)               Scaling factor
                        278.880             278.880                        1.000


 SCF WAVEFUNCTION OPTIMIZATION

  Step     Update method      Time    Convergence         Total energy    Change
  ------------------------------------------------------------------------------
     1 NoMix/Diag. 0.80E-01    1.6     0.87261044     -5426.4465471752 -5.43E+03
     2 Broy./Diag. 0.80E-01    1.5     0.01992724     -5316.0996310695  1.10E+02
     3 Broy./Diag. 0.80E-01    1.6     0.04328805     -5349.8652211764 -3.38E+01
     4 Broy./Diag. 0.80E-01    1.5     0.01139646     -5406.0733749067 -5.62E+01
     5 Broy./Diag. 0.80E-01    1.5     0.00965207     -5416.4295735045 -1.04E+01
     6 Broy./Diag. 0.80E-01    1.5     0.01510851     -5415.3215227706  1.11E+00
     7 Broy./Diag. 0.80E-01    1.5     0.00259582     -5416.9799533302 -1.66E+00
     8 Broy./Diag. 0.80E-01    1.5     0.00958556     -5417.0621554759 -8.22E-02
     9 Broy./Diag. 0.80E-01    1.5     0.00291627     -5416.8145664424  2.48E-01
[...]
   132 Broy./Diag. 0.80E-01    1.5     0.05128481     -5419.1847093044 -9.45E-01
   133 Broy./Diag. 0.80E-01    1.5     0.01348467     -5418.2433449582  9.41E-01
   134 Broy./Diag. 0.80E-01    1.5     0.03932830     -5418.0054991116  2.38E-01
   135 Broy./Diag. 0.80E-01    1.5     0.03367814     -5420.8350034114 -2.83E+00
   136 Broy./Diag. 0.80E-01    1.5     0.03956574     -5420.1877538227  6.47E-01
   137 Broy./Diag. 0.80E-01    1.5     0.03194719     -5420.9872407128 -7.99E-01
   138 Broy./Diag. 0.80E-01    1.5     0.01281187     -5421.2303714462 -2.43E-01
   139 Broy./Diag. 0.80E-01    1.5     0.01989494     -5421.3324162456 -1.02E-01
   140 Broy./Diag. 0.80E-01    1.5     0.02755628     -5421.1230838550  2.09E-01
   141 Broy./Diag. 0.80E-01    1.5     0.11374094     -5420.7996718663  3.23E-01
   142 Broy./Diag. 0.80E-01    1.5     0.03637373     -5420.6016055169  1.98E-01
   143 Broy./Diag. 0.80E-01    1.5     0.16148639     -5420.6119334383 -1.03E-02
   144 Broy./Diag. 0.80E-01    1.5     0.04301242     -5418.1019373067  2.51E+00
   145 Broy./Diag. 0.80E-01    1.5     0.12204134     -5417.3281663160  7.74E-01
   146 Broy./Diag. 0.80E-01    1.5     0.04083451     -5420.3957162720 -3.07E+00
   147 Broy./Diag. 0.80E-01    1.5     0.04915544     -5420.0195234777  3.76E-01
   148 Broy./Diag. 0.80E-01    1.5     0.00854484     -5420.3508565448 -3.31E-01
   149 Broy./Diag. 0.80E-01    1.5     0.02285759     -5419.8875651365  4.63E-01
   150 Broy./Diag. 0.80E-01    1.5     0.01174539     -5418.8941775858  9.93E-01
   151 Broy./Diag. 0.80E-01    1.5     0.04002884     -5419.2059779222 -3.12E-01
   152 Broy./Diag. 0.80E-01    1.5     0.07256401     -5419.9187236209 -7.13E-01
   153 Broy./Diag. 0.80E-01    1.5     0.04496716     -5419.4800827797  4.39E-01
   154 Broy./Diag. 0.80E-01    1.5     0.04652318     -5419.8959184029 -4.16E-01
   155 Broy./Diag. 0.80E-01    1.5     0.02273981     -5417.8968327569  2.00E+00
   156 Broy./Diag. 0.80E-01    1.5     0.00866449     -5417.8548978831  4.19E-02
   157 Broy./Diag. 0.80E-01    1.5     0.02010112     -5417.8046931671  5.02E-02
   158 Broy./Diag. 0.80E-01    1.5     0.02507196     -5417.7451682918  5.95E-02
   159 Broy./Diag. 0.80E-01    1.5     0.00964068     -5417.7641968704 -1.90E-02
   160 Broy./Diag. 0.80E-01    1.5     0.03732227     -5417.4118119543  3.52E-01
   161 Broy./Diag. 0.80E-01    1.5     0.03050317     -5416.1502958183  1.26E+00
   162 Broy./Diag. 0.80E-01    1.5     0.04795622     -5417.3296075599 -1.18E+00
   163 Broy./Diag. 0.80E-01    1.5     0.01304475     -5417.8534576641 -5.24E-01
   164 Broy./Diag. 0.80E-01    1.5     0.01636684     -5418.6384974626 -7.85E-01
   165 Broy./Diag. 0.80E-01    1.5     0.03242256     -5419.1317593210 -4.93E-01
   166 Broy./Diag. 0.80E-01    1.5     0.02305615     -5418.6738486736  4.58E-01
   167 Broy./Diag. 0.80E-01    1.5     0.04001608     -5418.7246984626 -5.08E-02
   168 Broy./Diag. 0.80E-01    1.5     0.01124485     -5416.2558822300  2.47E+00
   169 Broy./Diag. 0.80E-01    1.5     0.01275159     -5416.2985248994 -4.26E-02
   170 Broy./Diag. 0.80E-01    1.5     0.02650187     -5416.0095304276  2.89E-01
   171 Broy./Diag. 0.80E-01    1.5     0.01006902     -5415.8932160567  1.16E-01
   172 Broy./Diag. 0.80E-01    1.5     0.04643209     -5416.8163172977 -9.23E-01
   173 Broy./Diag. 0.80E-01    1.5     0.03515050     -5416.6141366682  2.02E-01
   174 Broy./Diag. 0.80E-01    1.5     0.03311930     -5417.7781346696 -1.16E+00
   175 Broy./Diag. 0.80E-01    1.5     0.07397200     -5419.8640834159 -2.09E+00
   176 Broy./Diag. 0.80E-01    1.5     0.02999683     -5421.3393563372 -1.48E+00
   177 Broy./Diag. 0.80E-01    1.5     0.00624095     -5420.7834576898  5.56E-01
   178 Broy./Diag. 0.80E-01    1.5     0.04672568     -5420.9698157323 -1.86E-01
   179 Broy./Diag. 0.80E-01    1.5     0.01213632     -5421.1429002472 -1.73E-01
   180 Broy./Diag. 0.80E-01    1.5     0.04256841     -5420.6104038446  5.32E-01
   181 Broy./Diag. 0.80E-01    1.5     0.02384400     -5420.0649703422  5.45E-01
   182 Broy./Diag. 0.80E-01    1.5     0.03183056     -5418.8138339562  1.25E+00
   183 Broy./Diag. 0.80E-01    1.5     0.02481026     -5420.0788441342 -1.27E+00
   184 Broy./Diag. 0.80E-01    1.5     0.01589313     -5418.8233729533  1.26E+00
   185 Broy./Diag. 0.80E-01    1.5     0.02891131     -5419.4279023959 -6.05E-01
   186 Broy./Diag. 0.80E-01    1.5     0.02713211     -5420.9048837377 -1.48E+00
   187 Broy./Diag. 0.80E-01    1.5     0.02463788     -5420.1844330602  7.20E-01
   188 Broy./Diag. 0.80E-01    1.5     0.03471034     -5420.3775197561 -1.93E-01
   189 Broy./Diag. 0.80E-01    1.5     0.06285324     -5419.3930685778  9.84E-01
   190 Broy./Diag. 0.80E-01    1.5     0.03511643     -5417.7712550971  1.62E+00
   191 Broy./Diag. 0.80E-01    1.5     0.02887036     -5417.8285037301 -5.72E-02
   192 Broy./Diag. 0.80E-01    1.5     0.01415001     -5417.2157205101  6.13E-01
   193 Broy./Diag. 0.80E-01    1.5     0.08957010     -5417.5235505249 -3.08E-01
   194 Broy./Diag. 0.80E-01    1.5     0.03732882     -5415.8083375660  1.72E+00
   195 Broy./Diag. 0.80E-01    1.5     0.07030234     -5417.5567755770 -1.75E+00
   196 Broy./Diag. 0.80E-01    1.5     0.09082275     -5415.8348579978  1.72E+00
   197 Broy./Diag. 0.80E-01    1.5     0.04322866     -5414.9707446256  8.64E-01
   198 Broy./Diag. 0.80E-01    1.5     0.10659075     -5415.2631874742 -2.92E-01
   199 Broy./Diag. 0.80E-01    1.5     0.08996017     -5414.2601550661  1.00E+00
   200 Broy./Diag. 0.80E-01    1.5     0.03589042     -5414.9471688496 -6.87E-01
   201 Broy./Diag. 0.80E-01    1.5     0.01215974     -5415.4222290914 -4.75E-01
   202 Broy./Diag. 0.80E-01    1.5     0.04481963     -5416.0781573327 -6.56E-01
   203 Broy./Diag. 0.80E-01    1.5     0.02600353     -5416.7612533043 -6.83E-01
   204 Broy./Diag. 0.80E-01    1.5     0.08284133     -5417.1692117503 -4.08E-01
   205 Broy./Diag. 0.80E-01    1.5     0.05363994     -5416.3068866506  8.62E-01
   206 Broy./Diag. 0.80E-01    1.5     0.02900840     -5416.8880767895 -5.81E-01
   207 Broy./Diag. 0.80E-01    1.5     0.05358436     -5416.3494495146  5.39E-01
   208 Broy./Diag. 0.80E-01    1.5     0.06236822     -5424.5263947946 -8.18E+00
   209 Broy./Diag. 0.80E-01    1.5     0.02302551     -5419.0391730514  5.49E+00
   210 Broy./Diag. 0.80E-01    1.5     0.01662988     -5423.0726014317 -4.03E+00
   211 Broy./Diag. 0.80E-01    1.5     0.01773726     -5422.3771149209  6.95E-01
   212 Broy./Diag. 0.80E-01    1.5     0.02720018     -5418.5592798280  3.82E+00
   213 Broy./Diag. 0.80E-01    1.5     0.04907064     -5419.6283269010 -1.07E+00
   214 Broy./Diag. 0.80E-01    1.5     0.02775799     -5418.1233132411  1.51E+00
   215 Broy./Diag. 0.80E-01    1.5     0.05218274     -5417.7524049623  3.71E-01
   216 Broy./Diag. 0.80E-01    1.5     0.02364379     -5418.6103673631 -8.58E-01
   217 Broy./Diag. 0.80E-01    1.5     0.02365111     -5420.4096608637 -1.80E+00
   218 Broy./Diag. 0.80E-01    1.5     0.00802669     -5423.4541142853 -3.04E+00
   219 Broy./Diag. 0.80E-01    1.5     0.03724634     -5423.5990509016 -1.45E-01
   220 Broy./Diag. 0.80E-01    1.5     0.04071573     -5424.5151829546 -9.16E-01
   221 Broy./Diag. 0.80E-01    1.5     0.07743482     -5424.3177364667  1.97E-01
   222 Broy./Diag. 0.80E-01    1.5     0.05275429     -5417.6065656509  6.71E+00
   223 Broy./Diag. 0.80E-01    1.5     0.00868326     -5416.2463826804  1.36E+00
   224 Broy./Diag. 0.80E-01    1.5     0.01230738     -5415.9721117068  2.74E-01
   225 Broy./Diag. 0.80E-01    1.5     0.01614593     -5416.8848048920 -9.13E-01
   226 Broy./Diag. 0.80E-01    1.5     0.03853551     -5416.1104605188  7.74E-01
   227 Broy./Diag. 0.80E-01    1.5     0.03695041     -5417.3228995172 -1.21E+00
   228 Broy./Diag. 0.80E-01    1.5     0.10072272     -5417.9264112117 -6.04E-01
   229 Broy./Diag. 0.80E-01    1.5     0.07651163     -5421.6241053461 -3.70E+00
   230 Broy./Diag. 0.80E-01    1.5     0.06188138     -5421.4555481146  1.69E-01
   231 Broy./Diag. 0.80E-01    1.5     0.03297182     -5420.7672080822  6.88E-01
   232 Broy./Diag. 0.80E-01    1.5     0.02828088     -5418.6299972832  2.14E+00
   233 Broy./Diag. 0.80E-01    1.5     0.05432217     -5417.3776392101  1.25E+00
   234 Broy./Diag. 0.80E-01    1.5     0.01406686     -5420.5491275710 -3.17E+00
   235 Broy./Diag. 0.80E-01    1.5     0.02558039     -5420.9949328637 -4.46E-01
   236 Broy./Diag. 0.80E-01    1.5     0.09898058     -5414.7536066034  6.24E+00
   237 Broy./Diag. 0.80E-01    1.5     0.05805540     -5413.1440015027  1.61E+00
   238 Broy./Diag. 0.80E-01    1.5     0.03693224     -5412.1631876350  9.81E-01
   239 Broy./Diag. 0.80E-01    1.5     0.04160845     -5412.1364593535  2.67E-02
   240 Broy./Diag. 0.80E-01    1.5     0.09971350     -5419.6501657091 -7.51E+00
   241 Broy./Diag. 0.80E-01    1.5     0.05919380     -5424.0997838980 -4.45E+00
   242 Broy./Diag. 0.80E-01    1.5     0.04239277     -5415.9828127510  8.12E+00
   243 Broy./Diag. 0.80E-01    1.5     0.07211810     -5425.0294277353 -9.05E+00
   244 Broy./Diag. 0.80E-01    1.5     0.05777113     -5421.5878330742  3.44E+00
   245 Broy./Diag. 0.80E-01    1.5     0.14613025     -5422.8053065555 -1.22E+00
   246 Broy./Diag. 0.80E-01    1.5     0.15438131     -5419.0330748557  3.77E+00
   247 Broy./Diag. 0.80E-01    1.5     0.25049837     -5418.7875697811  2.46E-01
   248 Broy./Diag. 0.80E-01    1.5     0.40664946     -5417.4508287626  1.34E+00
   249 Broy./Diag. 0.80E-01    1.5     0.04180428     -5423.6552700769 -6.20E+00
   250 Broy./Diag. 0.80E-01    1.5     0.04460315     -5424.6209413604 -9.66E-01
   251 Broy./Diag. 0.80E-01    1.5     0.08442755     -5424.5385197352  8.24E-02
   252 Broy./Diag. 0.80E-01    1.5     0.01390045     -5419.4571583179  5.08E+00
   253 Broy./Diag. 0.80E-01    1.5     0.05596529     -5423.1626738654 -3.71E+00
   254 Broy./Diag. 0.80E-01    1.5     0.09217549     -5425.3838812232 -2.22E+00
   255 Broy./Diag. 0.80E-01    1.5     0.11650643     -5419.1934208628  6.19E+00
   256 Broy./Diag. 0.80E-01    1.5     0.04528322     -5418.5460403556  6.47E-01
   257 Broy./Diag. 0.80E-01    1.5     0.52485861     -5415.5185498736  3.03E+00
   258 Broy./Diag. 0.80E-01    1.5     0.60901651     -5424.4984654497 -8.98E+00
   259 Broy./Diag. 0.80E-01    1.5     0.09990671     -5419.2282626039  5.27E+00
   260 Broy./Diag. 0.80E-01    1.5     0.15767947     -5418.8042104274  4.24E-01
   261 Broy./Diag. 0.80E-01    1.5     0.13158865     -5417.1451443947  1.66E+00
   262 Broy./Diag. 0.80E-01    1.5     0.01034066     -5415.6989301542  1.45E+00
   263 Broy./Diag. 0.80E-01    1.5     0.21453137     -5414.8789030837  8.20E-01
   264 Broy./Diag. 0.80E-01    1.5     0.07008827     -5412.1751348723  2.70E+00
   265 Broy./Diag. 0.80E-01    1.5     0.02943766     -5413.2121679155 -1.04E+00
   266 Broy./Diag. 0.80E-01    1.5     0.12665000     -5413.2276080813 -1.54E-02
   267 Broy./Diag. 0.80E-01    1.5     0.07573967     -5413.5862893411 -3.59E-01
   268 Broy./Diag. 0.80E-01    1.5     0.12972959     -5412.9242679876  6.62E-01
   269 Broy./Diag. 0.80E-01    1.5     0.45058157     -5411.8740146162  1.05E+00
   270 Broy./Diag. 0.80E-01    1.5     0.14376927     -5415.1725621748 -3.30E+00
   271 Broy./Diag. 0.80E-01    1.5     0.10079715     -5423.2391555160 -8.07E+00
   272 Broy./Diag. 0.80E-01    1.5     0.12058838     -5415.8586444187  7.38E+00
   273 Broy./Diag. 0.80E-01    1.5     0.02462351     -5418.5809393878 -2.72E+00
   274 Broy./Diag. 0.80E-01    1.5     0.15955958     -5419.1058725314 -5.25E-01
   275 Broy./Diag. 0.80E-01    1.5     0.14170178     -5416.8355360323  2.27E+00
   276 Broy./Diag. 0.80E-01    1.5     0.20135495     -5420.9156267017 -4.08E+00
   277 Broy./Diag. 0.80E-01    1.5     0.54129591     -5421.9994363710 -1.08E+00
   278 Broy./Diag. 0.80E-01    1.5     0.10370457     -5426.6033588649 -4.60E+00
   279 Broy./Diag. 0.80E-01    1.5     0.01589229     -5425.2529107947  1.35E+00
   280 Broy./Diag. 0.80E-01    1.5     0.36461045     -5424.8404694878  4.12E-01
   281 Broy./Diag. 0.80E-01    1.5     0.14626900     -5421.3233657434  3.52E+00
   282 Broy./Diag. 0.80E-01    1.5     0.16652740     -5421.6011805163 -2.78E-01
   283 Broy./Diag. 0.80E-01    1.5     0.26566737     -5422.9284708387 -1.33E+00
   284 Broy./Diag. 0.80E-01    1.5     0.12146494     -5424.6037093282 -1.68E+00
   285 Broy./Diag. 0.80E-01    1.5     0.17530808     -5421.0969614898  3.51E+00
   286 Broy./Diag. 0.80E-01    1.5     0.06786230     -5415.8725614686  5.22E+00
   287 Broy./Diag. 0.80E-01    1.5     0.05489501     -5416.8476311953 -9.75E-01
   288 Broy./Diag. 0.80E-01    1.5     0.15938303     -5417.8237705047 -9.76E-01
   289 Broy./Diag. 0.80E-01    1.5     0.47632878     -5415.6447160140  2.18E+00
   290 Broy./Diag. 0.80E-01    1.5     0.42399139     -5413.2791714864  2.37E+00
   291 Broy./Diag. 0.80E-01    1.5     0.05725781     -5417.8264434113 -4.55E+00
   292 Broy./Diag. 0.80E-01    1.5     0.20950546     -5417.1984799627  6.28E-01
   293 Broy./Diag. 0.80E-01    1.5     0.39866429     -5415.6318348074  1.57E+00
   294 Broy./Diag. 0.80E-01    1.5     0.09773426     -5415.6533442000 -2.15E-02
   295 Broy./Diag. 0.80E-01    1.5     0.10202233     -5420.9488293434 -5.30E+00
   296 Broy./Diag. 0.80E-01    1.5     0.05726369     -5424.7376150221 -3.79E+00
   297 Broy./Diag. 0.80E-01    1.5     0.09585428     -5424.6167803758  1.21E-01
   298 Broy./Diag. 0.80E-01    1.5     0.19878415     -5422.7087179794  1.91E+00
   299 Broy./Diag. 0.80E-01    1.5     0.26910709     -5418.5112612553  4.20E+00
   300 Broy./Diag. 0.80E-01    1.5     0.06240130     -5420.3385898117 -1.83E+00
   301 Broy./Diag. 0.80E-01    1.5     0.07007093     -5419.5813620664  7.57E-01
   302 Broy./Diag. 0.80E-01    1.5     0.07476325     -5421.8593677324 -2.28E+00
   303 Broy./Diag. 0.80E-01    1.5     0.01632743     -5422.8852965946 -1.03E+00
   304 Broy./Diag. 0.80E-01    1.5     0.07172978     -5423.2036231338 -3.18E-01
   305 Broy./Diag. 0.80E-01    1.5     0.15029330     -5423.9623105253 -7.59E-01
   306 Broy./Diag. 0.80E-01    1.5     0.11105177     -5426.1702703451 -2.21E+00
   307 Broy./Diag. 0.80E-01    1.5     0.27832239     -5418.6923405524  7.48E+00
   308 Broy./Diag. 0.80E-01    1.5     0.29980204     -5412.6265137068  6.07E+00
   309 Broy./Diag. 0.80E-01    1.5     0.25333720     -5423.6189499482 -1.10E+01
   310 Broy./Diag. 0.80E-01    1.5     0.29341322     -5421.5500231973  2.07E+00
   311 Broy./Diag. 0.80E-01    1.5     0.15979479     -5420.7760750699  7.74E-01
   312 Broy./Diag. 0.80E-01    1.5     0.14147581     -5420.8747100414 -9.86E-02
   313 Broy./Diag. 0.80E-01    1.5     0.25207054     -5419.2111579585  1.66E+00
   314 Broy./Diag. 0.80E-01    1.5     0.38737123     -5416.8825808130  2.33E+00
   315 Broy./Diag. 0.80E-01    1.5     0.08403480     -5419.5073268164 -2.62E+00
   316 Broy./Diag. 0.80E-01    1.5     0.03338385     -5418.7062021893  8.01E-01
   317 Broy./Diag. 0.80E-01    1.5     0.09729045     -5419.3454809400 -6.39E-01
   318 Broy./Diag. 0.80E-01    1.5     0.03830164     -5422.2903459038 -2.94E+00
   319 Broy./Diag. 0.80E-01    1.5     0.06240696     -5420.4483023908  1.84E+00
   320 Broy./Diag. 0.80E-01    1.5     0.14743632     -5423.6876647997 -3.24E+00
   321 Broy./Diag. 0.80E-01    1.5     0.10764701     -5423.9074429843 -2.20E-01
   322 Broy./Diag. 0.80E-01    1.5     0.11178637     -5422.5699813905  1.34E+00
   323 Broy./Diag. 0.80E-01    1.5     0.12152497     -5423.8142360600 -1.24E+00
   324 Broy./Diag. 0.80E-01    1.5     0.10815640     -5424.2805512490 -4.66E-01
   325 Broy./Diag. 0.80E-01    1.5     0.18022767     -5423.5492970262  7.31E-01
   326 Broy./Diag. 0.80E-01    1.5     0.07638276     -5421.1276242374  2.42E+00
   327 Broy./Diag. 0.80E-01    1.5     0.07195311     -5420.8767632764  2.51E-01
   328 Broy./Diag. 0.80E-01    1.5     0.10842660     -5418.1886989856  2.69E+00
   329 Broy./Diag. 0.80E-01    1.5     0.05832192     -5415.7879751645  2.40E+00
   330 Broy./Diag. 0.80E-01    1.5     0.05101973     -5415.6238056865  1.64E-01
   331 Broy./Diag. 0.80E-01    1.5     0.02604903     -5416.5099802007 -8.86E-01
   332 Broy./Diag. 0.80E-01    1.5     0.12328206     -5418.4021386824 -1.89E+00
   333 Broy./Diag. 0.80E-01    1.5     0.16573197     -5418.1400610896  2.62E-01
   334 Broy./Diag. 0.80E-01    1.5     0.23195851     -5417.5867901028  5.53E-01
   335 Broy./Diag. 0.80E-01    1.5     0.26558851     -5416.9699535140  6.17E-01
   336 Broy./Diag. 0.80E-01    1.5     0.02057261     -5425.4826761344 -8.51E+00
   337 Broy./Diag. 0.80E-01    1.5     0.03637358     -5425.7630720933 -2.80E-01
   338 Broy./Diag. 0.80E-01    1.5     0.13086886     -5426.4704243570 -7.07E-01
   339 Broy./Diag. 0.80E-01    1.5     0.09782192     -5429.3756278953 -2.91E+00
   340 Broy./Diag. 0.80E-01    1.5     0.18293104     -5424.7716667467  4.60E+00
   341 Broy./Diag. 0.80E-01    1.5     0.12327597     -5425.0027984990 -2.31E-01
   342 Broy./Diag. 0.80E-01    1.5     0.05346006     -5421.0136838974  3.99E+00
   343 Broy./Diag. 0.80E-01    1.5     0.06242031     -5421.5839893541 -5.70E-01
   344 Broy./Diag. 0.80E-01    1.5     0.04961752     -5421.1258495673  4.58E-01
   345 Broy./Diag. 0.80E-01    1.5     0.07585667     -5422.2654937940 -1.14E+00
   346 Broy./Diag. 0.80E-01    1.5     0.14125284     -5423.8979924329 -1.63E+00
   347 Broy./Diag. 0.80E-01    1.5     0.27063697     -5429.7801897345 -5.88E+00
   348 Broy./Diag. 0.80E-01    1.5     0.36102198     -5425.3786497589  4.40E+00
   349 Broy./Diag. 0.80E-01    1.5     0.56153833     -5421.2523738727  4.13E+00
   350 Broy./Diag. 0.80E-01    1.5     0.51571378     -5429.7797406046 -8.53E+00
   351 Broy./Diag. 0.80E-01    1.5     0.35739332     -5427.1694732554  2.61E+00
   352 Broy./Diag. 0.80E-01    1.5     0.20369463     -5421.8675678834  5.30E+00
   353 Broy./Diag. 0.80E-01    1.5     0.07142160     -5420.1221639299  1.75E+00
   354 Broy./Diag. 0.80E-01    1.5     0.08349775     -5419.8044615031  3.18E-01
   355 Broy./Diag. 0.80E-01    1.5     0.43400044     -5421.3814551076 -1.58E+00
   356 Broy./Diag. 0.80E-01    1.5     0.05520360     -5424.4130724745 -3.03E+00
   357 Broy./Diag. 0.80E-01    1.5     0.12078649     -5418.7262530124  5.69E+00
   358 Broy./Diag. 0.80E-01    1.5     0.20058837     -5417.4323636621  1.29E+00
   359 Broy./Diag. 0.80E-01    1.5     0.27161443     -5417.3043569025  1.28E-01
   360 Broy./Diag. 0.80E-01    1.5     0.14712387     -5420.6608999647 -3.36E+00
   361 Broy./Diag. 0.80E-01    1.5     0.34658300     -5421.5796458387 -9.19E-01
   362 Broy./Diag. 0.80E-01    1.5     0.04319576     -5422.6385865974 -1.06E+00
   363 Broy./Diag. 0.80E-01    1.5     0.21250303     -5421.7742113921  8.64E-01
   364 Broy./Diag. 0.80E-01    1.5     0.18839948     -5416.2919403364  5.48E+00
   365 Broy./Diag. 0.80E-01    1.5     0.08237089     -5417.7355901345 -1.44E+00
   366 Broy./Diag. 0.80E-01    1.5     0.00991436     -5419.8408273399 -2.11E+00
   367 Broy./Diag. 0.80E-01    1.5     0.14231707     -5420.1261483807 -2.85E-01
   368 Broy./Diag. 0.80E-01    1.5     0.38112118     -5418.0720783012  2.05E+00
   369 Broy./Diag. 0.80E-01    1.5     0.12082734     -5423.0877802951 -5.02E+00
   370 Broy./Diag. 0.80E-01    1.5     0.09358744     -5422.2825502357  8.05E-01
   371 Broy./Diag. 0.80E-01    1.5     0.12439570     -5423.2804867242 -9.98E-01
   372 Broy./Diag. 0.80E-01    1.5     0.29702170     -5426.3722751018 -3.09E+00
   373 Broy./Diag. 0.80E-01    1.5     0.84114358     -5424.2184682451  2.15E+00
   374 Broy./Diag. 0.80E-01    1.5     0.21715600     -5421.1606622164  3.06E+00
   375 Broy./Diag. 0.80E-01    1.5     0.07173699     -5424.4560156532 -3.30E+00
   376 Broy./Diag. 0.80E-01    1.5     0.27123377     -5421.3894688148  3.07E+00
   377 Broy./Diag. 0.80E-01    1.5     0.06523498     -5422.8672277063 -1.48E+00
