 DBCSR| CPU Multiplication driver                                           XSMM (U)
 DBCSR| Multrec recursion limit                                              512 (U)
 DBCSR| Multiplication stack size                                           1000 (D)
 DBCSR| Maximum elements for images                                    UNLIMITED (U)
 DBCSR| Multiplicative factor virtual images                                   1 (U)
 DBCSR| Use multiplication densification                                       T (D)
 DBCSR| Multiplication size stacks                                             3 (U)
 DBCSR| Use memory pool for CPU allocation                                     F (U)
 DBCSR| Number of 3D layers                                               SINGLE (U)
 DBCSR| Use MPI memory allocation                                              F (U)
 DBCSR| Use RMA algorithm                                                      F (U)
 DBCSR| Use Communication thread                                               T (U)
 DBCSR| Communication thread load                                             87 (D)
 DBCSR| MPI: My process id                                                     0
 DBCSR| MPI: Number of processes                                             128
 DBCSR| OMP: Current number of threads                                         1
 DBCSR| OMP: Max number of threads                                             1
 DBCSR| Split modifier for TAS multiplication algorithm                  1.0E+00 (U)


  **** **** ******  **  PROGRAM STARTED AT               2023-02-14 14:13:42.968
 ***** ** ***  *** **   PROGRAM STARTED ON                             nid006335
 **    ****   ******    PROGRAM STARTED BY                                cahart
 ***** **    ** ** **   PROGRAM PROCESS ID                                161076
  **** **  *******  **  PROGRAM STARTED IN /mnt/lustre/a2fs-work2/work/e05/e05/c
                                           ahart/postdoc/masters/ni/archer2/slab
                                           /optimise/alpha-beta/scf_5e-4_mos-100
                                           0_temp-2000_spin-0.7-0.5_periodic-xyz
                                           /search/1.0E-3_1.0E-3

 CP2K| version string:                 CP2K version 2023.1 (Development Version)
 CP2K| source code revision number:                                  git:964cd58
 CP2K| cp2kflags: omp libint fftw3 libxc elpa parallel scalapack xsmm plumed2 mk
 CP2K|            l
 CP2K| is freely available from                            https://www.cp2k.org/
 CP2K| Program compiled at                          Mon 13 Feb 17:05:14 GMT 2023
 CP2K| Program compiled on                                                  ln01
 CP2K| Program compiled for                                              ARCHER2
 CP2K| Data directory path    /work/e05/e05/cahart/cp2k/cp2k-2023.1/cp2k-2023.1-
 CP2K| Input file name                                                  cp2k.inp

 GLOBAL| Force Environment number                                              1
 GLOBAL| Basis set file name                                        BASIS_MOLOPT
 GLOBAL| Potential file name                                      GTH_POTENTIALS
 GLOBAL| MM Potential file name                                     MM_POTENTIAL
 GLOBAL| Coordinate file name                                      __STD_INPUT__
 GLOBAL| Method name                                                        CP2K
 GLOBAL| Project name                                                    Ni_bulk
 GLOBAL| Run type                                                         ENERGY
 GLOBAL| FFT library                                                       FFTW3
 GLOBAL| Diagonalization library                                            ELPA
 GLOBAL| DGEMM library                                                      BLAS
 GLOBAL| Minimum number of eigenvectors for ELPA usage                        16
 GLOBAL| Orthonormality check for eigenvectors                          DISABLED
 GLOBAL| Matrix multiplication library                                 ScaLAPACK
 GLOBAL| All-to-all communication in single precision                          F
 GLOBAL| FFTs using library dependent lengths                                  F
 GLOBAL| Grid backend                                                       AUTO
 GLOBAL| Global print level                                               MEDIUM
 GLOBAL| MPI I/O enabled                                                       T
 GLOBAL| Total number of message passing processes                           128
 GLOBAL| Number of threads for this process                                    1
 GLOBAL| This output is from process                                           0
 GLOBAL| Stack size for threads created by OpenMP (OMP_STACKSIZE)        default
 GLOBAL| CPU model name                          AMD EPYC 7742 64-Core Processor
 GLOBAL| CPUID                                                              1002

 MEMORY| system memory details [Kb]
 MEMORY|                        rank 0           min           max       average
 MEMORY| MemTotal            263528084     263528084     263528084     263528084
 MEMORY| MemFree             237668212     237668212     237668212     237668212
 MEMORY| Buffers                 26048         26048         26048         26048
 MEMORY| Cached                1104352       1104352       1104352       1104352
 MEMORY| Slab                  1766212       1766212       1766212       1766212
 MEMORY| SReclaimable           146648        146648        146648        146648
 MEMORY| MemLikelyFree       238945260     238945260     238945260     238945260


 *** Fundamental physical constants (SI units) ***

 *** Literature: B. J. Mohr and B. N. Taylor,
 ***             CODATA recommended values of the fundamental physical
 ***             constants: 2006, Web Version 5.1
 ***             http://physics.nist.gov/constants

 Speed of light in vacuum [m/s]                             2.99792458000000E+08
 Magnetic constant or permeability of vacuum [N/A**2]       1.25663706143592E-06
 Electric constant or permittivity of vacuum [F/m]          8.85418781762039E-12
 Planck constant (h) [J*s]                                  6.62606896000000E-34
 Planck constant (h-bar) [J*s]                              1.05457162825177E-34
 Elementary charge [C]                                      1.60217648700000E-19
 Electron mass [kg]                                         9.10938215000000E-31
 Electron g factor [ ]                                     -2.00231930436220E+00
 Proton mass [kg]                                           1.67262163700000E-27
 Fine-structure constant                                    7.29735253760000E-03
 Rydberg constant [1/m]                                     1.09737315685270E+07
 Avogadro constant [1/mol]                                  6.02214179000000E+23
 Boltzmann constant [J/K]                                   1.38065040000000E-23
 Atomic mass unit [kg]                                      1.66053878200000E-27
 Bohr radius [m]                                            5.29177208590000E-11

 *** Conversion factors ***

 [u] -> [a.u.]                                              1.82288848426455E+03
 [Angstrom] -> [Bohr] = [a.u.]                              1.88972613288564E+00
 [a.u.] = [Bohr] -> [Angstrom]                              5.29177208590000E-01
 [a.u.] -> [s]                                              2.41888432650478E-17
 [a.u.] -> [fs]                                             2.41888432650478E-02
 [a.u.] -> [J]                                              4.35974393937059E-18
 [a.u.] -> [N]                                              8.23872205491840E-08
 [a.u.] -> [K]                                              3.15774647902944E+05
 [a.u.] -> [kJ/mol]                                         2.62549961709828E+03
 [a.u.] -> [kcal/mol]                                       6.27509468713739E+02
 [a.u.] -> [Pa]                                             2.94210107994716E+13
 [a.u.] -> [bar]                                            2.94210107994716E+08
 [a.u.] -> [atm]                                            2.90362800883016E+08
 [a.u.] -> [eV]                                             2.72113838565563E+01
 [a.u.] -> [Hz]                                             6.57968392072181E+15
 [a.u.] -> [1/cm] (wave numbers)                            2.19474631370540E+05
 [a.u./Bohr**2] -> [1/cm]                                   5.14048714338585E+03
 

 CELL_TOP| Volume [angstrom^3]:                                       983.249569
 CELL_TOP| Vector a [angstrom     7.012     0.000     0.000   |a| =     7.011596
 CELL_TOP| Vector b [angstrom     0.000     7.012     0.000   |b| =     7.011596
 CELL_TOP| Vector c [angstrom     0.000     0.000    20.000   |c| =    20.000000
 CELL_TOP| Angle (b,c), alpha [degree]:                                90.000000
 CELL_TOP| Angle (a,c), beta  [degree]:                                90.000000
 CELL_TOP| Angle (a,b), gamma [degree]:                                90.000000
 CELL_TOP| Numerically orthorhombic:                                         YES
 CELL_TOP| Periodicity                                                       XYZ

 GENERATE|  Preliminary Number of Bonds generated:                             0
 GENERATE|  Achieved consistency in connectivity generation.

 CELL| Volume [angstrom^3]:                                           983.249569
 CELL| Vector a [angstrom]:       7.012     0.000     0.000   |a| =     7.011596
 CELL| Vector b [angstrom]:       0.000     7.012     0.000   |b| =     7.011596
 CELL| Vector c [angstrom]:       0.000     0.000    20.000   |c| =    20.000000
 CELL| Angle (b,c), alpha [degree]:                                    90.000000
 CELL| Angle (a,c), beta  [degree]:                                    90.000000
 CELL| Angle (a,b), gamma [degree]:                                    90.000000
 CELL| Numerically orthorhombic:                                             YES
 CELL| Periodicity                                                           XYZ

 CELL_REF| Volume [angstrom^3]:                                       983.249569
 CELL_REF| Vector a [angstrom     7.012     0.000     0.000   |a| =     7.011596
 CELL_REF| Vector b [angstrom     0.000     7.012     0.000   |b| =     7.011596
 CELL_REF| Vector c [angstrom     0.000     0.000    20.000   |c| =    20.000000
 CELL_REF| Angle (b,c), alpha [degree]:                                90.000000
 CELL_REF| Angle (a,c), beta  [degree]:                                90.000000
 CELL_REF| Angle (a,b), gamma [degree]:                                90.000000
 CELL_REF| Numerically orthorhombic:                                         YES
 CELL_REF| Periodicity                                                       XYZ

 *** WARNING in cryssym.F:165 :: Symmetry library SPGLIB not available ***


 *******************************************************************************
                                    Kpoints
 *******************************************************************************
 BRILLOUIN| K-point scheme                                        Monkhorst-Pack
 BRILLOUIN| K-Point grid                                             4    4    1
 BRILLOUIN| Accuracy in Symmetry determination                      0.100000E-05
 BRILLOUIN| K-Point point group symmetrization                               OFF
 BRILLOUIN| Wavefunction type                                            COMPLEX
 BRILLOUIN| List of Kpoints [2 Pi/Bohr]                                        8
 BRILLOUIN| Number           Weight            X              Y              Z
 BRILLOUIN|     1           0.12500       -0.37500       -0.37500        0.00000
 BRILLOUIN|     2           0.12500       -0.37500       -0.12500        0.00000
 BRILLOUIN|     3           0.12500       -0.37500        0.12500        0.00000
 BRILLOUIN|     4           0.12500       -0.37500        0.37500        0.00000
 BRILLOUIN|     5           0.12500       -0.12500       -0.37500        0.00000
 BRILLOUIN|     6           0.12500       -0.12500       -0.12500        0.00000
 BRILLOUIN|     7           0.12500       -0.12500        0.12500        0.00000
 BRILLOUIN|     8           0.12500       -0.12500        0.37500        0.00000
 *******************************************************************************

 *******************************************************************************
 *******************************************************************************
 **                                                                           **
 **     #####                         ##              ##                      **
 **    ##   ##            ##          ##              ##                      **
 **   ##     ##                       ##            ######                    **
 **   ##     ##  ##   ##  ##   #####  ##  ##   ####   ##    #####    #####    **
 **   ##     ##  ##   ##  ##  ##      ## ##   ##      ##   ##   ##  ##   ##   **
 **   ##  ## ##  ##   ##  ##  ##      ####     ###    ##   ######   ######    **
 **    ##  ###   ##   ##  ##  ##      ## ##      ##   ##   ##       ##        **
 **     #######   #####   ##   #####  ##  ##  ####    ##    #####   ##        **
 **           ##                                                    ##        **
 **                                                                           **
 **                                                ... make the atoms dance   **
 **                                                                           **
 **            Copyright (C) by CP2K developers group (2000-2023)             **
 **                      J. Chem. Phys. 152, 194103 (2020)                    **
 **                                                                           **
 *******************************************************************************

 *** WARNING in qs_environment.F:1456 :: Number of electrons will be ***
 *** overwritten by NELEC_ALPHA and NELEC_BETA, multiplicity will be ***
 *** ignored.                                                        ***

 Number of electrons should be                                               576
 Sum of NELEC_ALPHA and NELEC_BETA is                                    576.000

 *** WARNING in qs_environment.F:1488 :: NELEC_ALPHA is not an integer, ***
 *** many features will not be supported.                               ***


 *** WARNING in qs_environment.F:1500 :: NELEC_BETA is not an integer, ***
 *** many features will not be supported.                              ***


 *** WARNING in qs_environment.F:1532 :: More ADDED_MOs requested for beta ***
 *** spin than available.                                                  ***


 *** WARNING in qs_environment.F:1548 :: More added MOs requested than     ***
 *** available. The full set of unoccupied MOs will be used. Use           ***
 *** 'ADDED_MOS -1' to always use all available MOs and to get rid of this ***
 *** warning.                                                              ***


 DFT| Spin unrestricted (spin-polarized) Kohn-Sham calculation               UKS
 DFT| Multiplicity                                                             1
 DFT| Number of spin states                                                    2
 DFT| Charge                                                                   0
 DFT| Self-interaction correction (SIC)                                       NO
 DFT| Cutoffs: density                                              1.000000E-10
 DFT|          gradient                                             1.000000E-10
 DFT|          tau                                                  1.000000E-10
 DFT|          cutoff_smoothing_range                               0.000000E+00
 DFT| XC density smoothing                                                  NONE
 DFT| XC derivatives                                                          PW

 FUNCTIONAL| PBE:
 FUNCTIONAL| J.P.Perdew, K.Burke, M.Ernzerhof, Phys. Rev. Letter, vol. 77, n 18,
 FUNCTIONAL|  pp. 3865-3868, (1996){spin polarized}                             

 vdW POTENTIAL|                                                   Pair Potential
 vdW POTENTIAL|          DFT-D3 (Version 3.1)
 vdW POTENTIAL|          Potential Form: S. Grimme et al, JCP 132: 154104 (2010)
 vdW POTENTIAL|          Zero Damping
 vdW POTENTIAL|          Cutoff Radius [Bohr]:                             20.00
 vdW POTENTIAL|          s6 Scaling Factor:                               1.0000
 vdW POTENTIAL|          sr6 Scaling Factor:                              1.2170
 vdW POTENTIAL|          s8 Scaling Factor:                               0.7220
 vdW POTENTIAL|          Cutoff for CN calculation:                   0.1000E-05

 QS| Method:                                                                 GPW
 QS| Density plane wave grid type                        NON-SPHERICAL FULLSPACE
 QS| Number of grid levels:                                                    5
 QS| Density cutoff [a.u.]:                                                300.0
 QS| Multi grid cutoff [a.u.]: 1) grid level                               300.0
 QS|                           2) grid level                               100.0
 QS|                           3) grid level                                33.3
 QS|                           4) grid level                                11.1
 QS|                           5) grid level                                 3.7
 QS| Grid level progression factor:                                          3.0
 QS| Relative density cutoff [a.u.]:                                        30.0
 QS| Interaction thresholds: eps_pgf_orb:                                1.0E-06
 QS|                         eps_filter_matrix:                          0.0E+00
 QS|                         eps_core_charge:                            1.0E-14
 QS|                         eps_rho_gspace:                             1.0E-12
 QS|                         eps_rho_rspace:                             1.0E-12
 QS|                         eps_gvg_rspace:                             1.0E-06
 QS|                         eps_ppl:                                    1.0E-02
 QS|                         eps_ppnl:                                   1.0E-08


 ATOMIC KIND INFORMATION

  1. Atomic kind: Ni_i                                  Number of atoms:      16

     Orbital Basis Set                                        DZVP-MOLOPT-SR-GTH

       Number of orbital shell sets:                                           1
       Number of orbital shells:                                               8
       Number of primitive Cartesian functions:                                6
       Number of Cartesian basis functions:                                   31
       Number of spherical basis functions:                                   26
       Norm type:                                                              2

       Normalised Cartesian orbitals:

                        Set   Shell   Orbital            Exponent    Coefficient

                          1       1    2s               10.077428      -0.684558
                                                         5.847736      -0.844524
                                                         2.494033       1.088856
                                                         0.988355       0.395503
                                                         0.344978       0.010224
                                                         0.099466      -0.003250

                          1       2    3s               10.077428       0.096747
                                                         5.847736       0.162504
                                                         2.494033      -0.297192
                                                         0.988355      -0.319752
                                                         0.344978       0.088318
                                                         0.099466       0.118587

                          1       3    4s               10.077428       0.036437
                                                         5.847736      -0.381480
                                                         2.494033       0.003759
                                                         0.988355      -1.048256
                                                         0.344978       0.855825
                                                         0.099466      -0.176350

                          1       4    3px              10.077428      -3.133913
                                                         5.847736       3.027656
                                                         2.494033       2.353227
                                                         0.988355       0.554184
                                                         0.344978       0.019462
                                                         0.099466      -0.000291
                          1       4    3py              10.077428      -3.133913
                                                         5.847736       3.027656
                                                         2.494033       2.353227
                                                         0.988355       0.554184
                                                         0.344978       0.019462
                                                         0.099466      -0.000291
                          1       4    3pz              10.077428      -3.133913
                                                         5.847736       3.027656
                                                         2.494033       2.353227
                                                         0.988355       0.554184
                                                         0.344978       0.019462
                                                         0.099466      -0.000291

                          1       5    4px              10.077428      -0.112729
                                                         5.847736      -0.114008
                                                         2.494033      -0.347303
                                                         0.988355      -0.110323
                                                         0.344978       0.154096
                                                         0.099466       0.058386
                          1       5    4py              10.077428      -0.112729
                                                         5.847736      -0.114008
                                                         2.494033      -0.347303
                                                         0.988355      -0.110323
                                                         0.344978       0.154096
                                                         0.099466       0.058386
                          1       5    4pz              10.077428      -0.112729
                                                         5.847736      -0.114008
                                                         2.494033      -0.347303
                                                         0.988355      -0.110323
                                                         0.344978       0.154096
                                                         0.099466       0.058386

                          1       6    4dx2             10.077428       8.232726
                                                         5.847736       9.105758
                                                         2.494033       2.849835
                                                         0.988355       0.554319
                                                         0.344978       0.067245
                                                         0.099466       0.001940
                          1       6    4dxy             10.077428      14.259500
                                                         5.847736      15.771636
                                                         2.494033       4.936060
                                                         0.988355       0.960109
                                                         0.344978       0.116472
                                                         0.099466       0.003360
                          1       6    4dxz             10.077428      14.259500
                                                         5.847736      15.771636
                                                         2.494033       4.936060
                                                         0.988355       0.960109
                                                         0.344978       0.116472
                                                         0.099466       0.003360
                          1       6    4dy2             10.077428       8.232726
                                                         5.847736       9.105758
                                                         2.494033       2.849835
                                                         0.988355       0.554319
                                                         0.344978       0.067245
                                                         0.099466       0.001940
                          1       6    4dyz             10.077428      14.259500
                                                         5.847736      15.771636
                                                         2.494033       4.936060
                                                         0.988355       0.960109
                                                         0.344978       0.116472
                                                         0.099466       0.003360
                          1       6    4dz2             10.077428       8.232726
                                                         5.847736       9.105758
                                                         2.494033       2.849835
                                                         0.988355       0.554319
                                                         0.344978       0.067245
                                                         0.099466       0.001940

                          1       7    5dx2             10.077428      -2.715373
                                                         5.847736      -4.020640
                                                         2.494033      -1.397569
                                                         0.988355      -0.076143
                                                         0.344978       0.033435
                                                         0.099466       0.026032
                          1       7    5dxy             10.077428      -4.703164
                                                         5.847736      -6.963952
                                                         2.494033      -2.420661
                                                         0.988355      -0.131883
                                                         0.344978       0.057911
                                                         0.099466       0.045088
                          1       7    5dxz             10.077428      -4.703164
                                                         5.847736      -6.963952
                                                         2.494033      -2.420661
                                                         0.988355      -0.131883
                                                         0.344978       0.057911
                                                         0.099466       0.045088
                          1       7    5dy2             10.077428      -2.715373
                                                         5.847736      -4.020640
                                                         2.494033      -1.397569
                                                         0.988355      -0.076143
                                                         0.344978       0.033435
                                                         0.099466       0.026032
                          1       7    5dyz             10.077428      -4.703164
                                                         5.847736      -6.963952
                                                         2.494033      -2.420661
                                                         0.988355      -0.131883
                                                         0.344978       0.057911
                                                         0.099466       0.045088
                          1       7    5dz2             10.077428      -2.715373
                                                         5.847736      -4.020640
                                                         2.494033      -1.397569
                                                         0.988355      -0.076143
                                                         0.344978       0.033435
                                                         0.099466       0.026032

                          1       8    5fx3             10.077428      -0.467694
                                                         5.847736       0.618100
                                                         2.494033       0.066069
                                                         0.988355       0.262898
                                                         0.344978       0.004720
                                                         0.099466       0.007748
                          1       8    5fx2y            10.077428      -1.045795
                                                         5.847736       1.382114
                                                         2.494033       0.147734
                                                         0.988355       0.587859
                                                         0.344978       0.010555
                                                         0.099466       0.017325
                          1       8    5fx2z            10.077428      -1.045795
                                                         5.847736       1.382114
                                                         2.494033       0.147734
                                                         0.988355       0.587859
                                                         0.344978       0.010555
                                                         0.099466       0.017325
                          1       8    5fxy2            10.077428      -1.045795
                                                         5.847736       1.382114
                                                         2.494033       0.147734
                                                         0.988355       0.587859
                                                         0.344978       0.010555
                                                         0.099466       0.017325
                          1       8    5fxyz            10.077428      -1.811371
                                                         5.847736       2.393892
                                                         2.494033       0.255883
                                                         0.988355       1.018201
                                                         0.344978       0.018282
                                                         0.099466       0.030008
                          1       8    5fxz2            10.077428      -1.045795
                                                         5.847736       1.382114
                                                         2.494033       0.147734
                                                         0.988355       0.587859
                                                         0.344978       0.010555
                                                         0.099466       0.017325
                          1       8    5fy3             10.077428      -0.467694
                                                         5.847736       0.618100
                                                         2.494033       0.066069
                                                         0.988355       0.262898
                                                         0.344978       0.004720
                                                         0.099466       0.007748
                          1       8    5fy2z            10.077428      -1.045795
                                                         5.847736       1.382114
                                                         2.494033       0.147734
                                                         0.988355       0.587859
                                                         0.344978       0.010555
                                                         0.099466       0.017325
                          1       8    5fyz2            10.077428      -1.045795
                                                         5.847736       1.382114
                                                         2.494033       0.147734
                                                         0.988355       0.587859
                                                         0.344978       0.010555
                                                         0.099466       0.017325
                          1       8    5fz3             10.077428      -0.467694
                                                         5.847736       0.618100
                                                         2.494033       0.066069
                                                         0.988355       0.262898
                                                         0.344978       0.004720
                                                         0.099466       0.007748

       Atomic covalent radius [Angstrom]:                                  1.150

       Atomic van der Waals radius [Angstrom]:                             1.630

     GTH Potential information for                                   GTH-PBE-q18

       Description:                       Goedecker-Teter-Hutter pseudopotential
                                           Goedecker et al., PRB 54, 1703 (1996)
                                          Hartwigsen et al., PRB 58, 3641 (1998)
                                                      Krack, TCA 114, 145 (2005)

       Gaussian exponent of the core charge distribution:               4.081633
       Electronic configuration (s p d ...):                           4   6   8

       Parameters of the local part of the GTH pseudopotential:

                          rloc        C1          C2          C3          C4
                        0.350000    2.102166    0.648484

       Parameters of the non-local part of the GTH pseudopotential:

                   l      r(l)      h(i,j,l)

                   0    0.261295    0.622658    9.970227
                                    9.970227  -12.871507
                   1    0.224253  -11.142708   12.429566
                                   12.429566  -14.706861
                   2    0.215348  -12.628146

  2. Atomic kind: Ni_b                                  Number of atoms:      16

     Orbital Basis Set                                        DZVP-MOLOPT-SR-GTH

       Number of orbital shell sets:                                           1
       Number of orbital shells:                                               8
       Number of primitive Cartesian functions:                                6
       Number of Cartesian basis functions:                                   31
       Number of spherical basis functions:                                   26
       Norm type:                                                              2

       Normalised Cartesian orbitals:

                        Set   Shell   Orbital            Exponent    Coefficient

                          1       1    2s               10.077428      -0.684558
                                                         5.847736      -0.844524
                                                         2.494033       1.088856
                                                         0.988355       0.395503
                                                         0.344978       0.010224
                                                         0.099466      -0.003250

                          1       2    3s               10.077428       0.096747
                                                         5.847736       0.162504
                                                         2.494033      -0.297192
                                                         0.988355      -0.319752
                                                         0.344978       0.088318
                                                         0.099466       0.118587

                          1       3    4s               10.077428       0.036437
                                                         5.847736      -0.381480
                                                         2.494033       0.003759
                                                         0.988355      -1.048256
                                                         0.344978       0.855825
                                                         0.099466      -0.176350

                          1       4    3px              10.077428      -3.133913
                                                         5.847736       3.027656
                                                         2.494033       2.353227
                                                         0.988355       0.554184
                                                         0.344978       0.019462
                                                         0.099466      -0.000291
                          1       4    3py              10.077428      -3.133913
                                                         5.847736       3.027656
                                                         2.494033       2.353227
                                                         0.988355       0.554184
                                                         0.344978       0.019462
                                                         0.099466      -0.000291
                          1       4    3pz              10.077428      -3.133913
                                                         5.847736       3.027656
                                                         2.494033       2.353227
                                                         0.988355       0.554184
                                                         0.344978       0.019462
                                                         0.099466      -0.000291

                          1       5    4px              10.077428      -0.112729
                                                         5.847736      -0.114008
                                                         2.494033      -0.347303
                                                         0.988355      -0.110323
                                                         0.344978       0.154096
                                                         0.099466       0.058386
                          1       5    4py              10.077428      -0.112729
                                                         5.847736      -0.114008
                                                         2.494033      -0.347303
                                                         0.988355      -0.110323
                                                         0.344978       0.154096
                                                         0.099466       0.058386
                          1       5    4pz              10.077428      -0.112729
                                                         5.847736      -0.114008
                                                         2.494033      -0.347303
                                                         0.988355      -0.110323
                                                         0.344978       0.154096
                                                         0.099466       0.058386

                          1       6    4dx2             10.077428       8.232726
                                                         5.847736       9.105758
                                                         2.494033       2.849835
                                                         0.988355       0.554319
                                                         0.344978       0.067245
                                                         0.099466       0.001940
                          1       6    4dxy             10.077428      14.259500
                                                         5.847736      15.771636
                                                         2.494033       4.936060
                                                         0.988355       0.960109
                                                         0.344978       0.116472
                                                         0.099466       0.003360
                          1       6    4dxz             10.077428      14.259500
                                                         5.847736      15.771636
                                                         2.494033       4.936060
                                                         0.988355       0.960109
                                                         0.344978       0.116472
                                                         0.099466       0.003360
                          1       6    4dy2             10.077428       8.232726
                                                         5.847736       9.105758
                                                         2.494033       2.849835
                                                         0.988355       0.554319
                                                         0.344978       0.067245
                                                         0.099466       0.001940
                          1       6    4dyz             10.077428      14.259500
                                                         5.847736      15.771636
                                                         2.494033       4.936060
                                                         0.988355       0.960109
                                                         0.344978       0.116472
                                                         0.099466       0.003360
                          1       6    4dz2             10.077428       8.232726
                                                         5.847736       9.105758
                                                         2.494033       2.849835
                                                         0.988355       0.554319
                                                         0.344978       0.067245
                                                         0.099466       0.001940

                          1       7    5dx2             10.077428      -2.715373
                                                         5.847736      -4.020640
                                                         2.494033      -1.397569
                                                         0.988355      -0.076143
                                                         0.344978       0.033435
                                                         0.099466       0.026032
                          1       7    5dxy             10.077428      -4.703164
                                                         5.847736      -6.963952
                                                         2.494033      -2.420661
                                                         0.988355      -0.131883
                                                         0.344978       0.057911
                                                         0.099466       0.045088
                          1       7    5dxz             10.077428      -4.703164
                                                         5.847736      -6.963952
                                                         2.494033      -2.420661
                                                         0.988355      -0.131883
                                                         0.344978       0.057911
                                                         0.099466       0.045088
                          1       7    5dy2             10.077428      -2.715373
                                                         5.847736      -4.020640
                                                         2.494033      -1.397569
                                                         0.988355      -0.076143
                                                         0.344978       0.033435
                                                         0.099466       0.026032
                          1       7    5dyz             10.077428      -4.703164
                                                         5.847736      -6.963952
                                                         2.494033      -2.420661
                                                         0.988355      -0.131883
                                                         0.344978       0.057911
                                                         0.099466       0.045088
                          1       7    5dz2             10.077428      -2.715373
                                                         5.847736      -4.020640
                                                         2.494033      -1.397569
                                                         0.988355      -0.076143
                                                         0.344978       0.033435
                                                         0.099466       0.026032

                          1       8    5fx3             10.077428      -0.467694
                                                         5.847736       0.618100
                                                         2.494033       0.066069
                                                         0.988355       0.262898
                                                         0.344978       0.004720
                                                         0.099466       0.007748
                          1       8    5fx2y            10.077428      -1.045795
                                                         5.847736       1.382114
                                                         2.494033       0.147734
                                                         0.988355       0.587859
                                                         0.344978       0.010555
                                                         0.099466       0.017325
                          1       8    5fx2z            10.077428      -1.045795
                                                         5.847736       1.382114
                                                         2.494033       0.147734
                                                         0.988355       0.587859
                                                         0.344978       0.010555
                                                         0.099466       0.017325
                          1       8    5fxy2            10.077428      -1.045795
                                                         5.847736       1.382114
                                                         2.494033       0.147734
                                                         0.988355       0.587859
                                                         0.344978       0.010555
                                                         0.099466       0.017325
                          1       8    5fxyz            10.077428      -1.811371
                                                         5.847736       2.393892
                                                         2.494033       0.255883
                                                         0.988355       1.018201
                                                         0.344978       0.018282
                                                         0.099466       0.030008
                          1       8    5fxz2            10.077428      -1.045795
                                                         5.847736       1.382114
                                                         2.494033       0.147734
                                                         0.988355       0.587859
                                                         0.344978       0.010555
                                                         0.099466       0.017325
                          1       8    5fy3             10.077428      -0.467694
                                                         5.847736       0.618100
                                                         2.494033       0.066069
                                                         0.988355       0.262898
                                                         0.344978       0.004720
                                                         0.099466       0.007748
                          1       8    5fy2z            10.077428      -1.045795
                                                         5.847736       1.382114
                                                         2.494033       0.147734
                                                         0.988355       0.587859
                                                         0.344978       0.010555
                                                         0.099466       0.017325
                          1       8    5fyz2            10.077428      -1.045795
                                                         5.847736       1.382114
                                                         2.494033       0.147734
                                                         0.988355       0.587859
                                                         0.344978       0.010555
                                                         0.099466       0.017325
                          1       8    5fz3             10.077428      -0.467694
                                                         5.847736       0.618100
                                                         2.494033       0.066069
                                                         0.988355       0.262898
                                                         0.344978       0.004720
                                                         0.099466       0.007748

       Atomic covalent radius [Angstrom]:                                  1.150

       Atomic van der Waals radius [Angstrom]:                             1.630

     GTH Potential information for                                   GTH-PBE-q18

       Description:                       Goedecker-Teter-Hutter pseudopotential
                                           Goedecker et al., PRB 54, 1703 (1996)
                                          Hartwigsen et al., PRB 58, 3641 (1998)
                                                      Krack, TCA 114, 145 (2005)

       Gaussian exponent of the core charge distribution:               4.081633
       Electronic configuration (s p d ...):                           4   6   8

       Parameters of the local part of the GTH pseudopotential:

                          rloc        C1          C2          C3          C4
                        0.350000    2.102166    0.648484

       Parameters of the non-local part of the GTH pseudopotential:

                   l      r(l)      h(i,j,l)

                   0    0.261295    0.622658    9.970227
                                    9.970227  -12.871507
                   1    0.224253  -11.142708   12.429566
                                   12.429566  -14.706861
                   2    0.215348  -12.628146


 MOLECULE KIND INFORMATION


 All atoms are their own molecule, skipping detailed information


 TOTAL NUMBERS AND MAXIMUM NUMBERS

  Total number of            - Atomic kinds:                                   2
                             - Atoms:                                         32
                             - Shell sets:                                    32
                             - Shells:                                       256
                             - Primitive Cartesian functions:                192
                             - Cartesian basis functions:                    992
                             - Spherical basis functions:                    832

  Maximum angular momentum of- Orbital basis functions:                        3
                             - Local part of the GTH pseudopotential:          2
                             - Non-local part of the GTH pseudopotential:      3


 MODULE QUICKSTEP: ATOMIC COORDINATES IN ANGSTROM

   Atom Kind Element         X             Y             Z       Z(eff)     Mass
      1    1 Ni   28      0.876298      0.876298      7.370500  18.0000  58.6934
      2    1 Ni   28      0.876298      4.382298      7.370500  18.0000  58.6934
      3    1 Ni   28      2.629298      2.629298      7.370500  18.0000  58.6934
      4    1 Ni   28      2.629298      6.135298      7.370500  18.0000  58.6934
      5    1 Ni   28      4.382298      0.876298      7.370500  18.0000  58.6934
      6    1 Ni   28      4.382298      4.382298      7.370500  18.0000  58.6934
      7    1 Ni   28      6.135298      2.629298      7.370500  18.0000  58.6934
      8    1 Ni   28      6.135298      6.135298      7.370500  18.0000  58.6934
      9    2 Ni   28      0.876298      2.629298      9.123500  18.0000  58.6934
     10    2 Ni   28      0.876298      6.135298      9.123500  18.0000  58.6934
     11    2 Ni   28      2.629298      0.876298      9.123500  18.0000  58.6934
     12    2 Ni   28      2.629298      4.382298      9.123500  18.0000  58.6934
     13    2 Ni   28      4.382298      2.629298      9.123500  18.0000  58.6934
     14    2 Ni   28      4.382298      6.135298      9.123500  18.0000  58.6934
     15    2 Ni   28      6.135298      0.876298      9.123500  18.0000  58.6934
     16    2 Ni   28      6.135298      4.382298      9.123500  18.0000  58.6934
     17    2 Ni   28      0.876298      0.876298     10.876500  18.0000  58.6934
     18    2 Ni   28      0.876298      4.382298     10.876500  18.0000  58.6934
     19    2 Ni   28      2.629298      2.629298     10.876500  18.0000  58.6934
     20    2 Ni   28      2.629298      6.135298     10.876500  18.0000  58.6934
     21    2 Ni   28      4.382298      0.876298     10.876500  18.0000  58.6934
     22    2 Ni   28      4.382298      4.382298     10.876500  18.0000  58.6934
     23    2 Ni   28      6.135298      2.629298     10.876500  18.0000  58.6934
     24    2 Ni   28      6.135298      6.135298     10.876500  18.0000  58.6934
     25    1 Ni   28      0.876298      2.629298     12.629500  18.0000  58.6934
     26    1 Ni   28      0.876298      6.135298     12.629500  18.0000  58.6934
     27    1 Ni   28      2.629298      0.876298     12.629500  18.0000  58.6934
     28    1 Ni   28      2.629298      4.382298     12.629500  18.0000  58.6934
     29    1 Ni   28      4.382298      2.629298     12.629500  18.0000  58.6934
     30    1 Ni   28      4.382298      6.135298     12.629500  18.0000  58.6934
     31    1 Ni   28      6.135298      0.876298     12.629500  18.0000  58.6934
     32    1 Ni   28      6.135298      4.382298     12.629500  18.0000  58.6934



 SCF PARAMETERS         Density guess:                                    ATOMIC
                        --------------------------------------------------------
                        max_scf:                                             500
                        max_scf_history:                                       0
                        max_diis:                                              4
                        --------------------------------------------------------
                        eps_scf:                                        5.00E-04
                        eps_scf_history:                                0.00E+00
                        eps_diis:                                       1.00E-01
                        eps_eigval:                                     1.00E-05
                        --------------------------------------------------------
                        level_shift [a.u.]:                             0.000000
                        added MOs                                       534  553
                        --------------------------------------------------------
                        Mixing method:                            BROYDEN_MIXING
                                                charge density mixing in g-space
                        --------------------------------------------------------
                        Smear method:                                FERMI_DIRAC
                        Electronic temperature [K]:                       2000.0
                        Electronic temperature [a.u.]:                  6.33E-03
                        Accuracy threshold:                             1.00E-10
                        --------------------------------------------------------
                        No outer SCF

 PW_GRID| Information for grid number                                          1
 PW_GRID| Grid distributed over                                   128 processors
 PW_GRID| Real space group dimensions                                     8   16
 PW_GRID| the grid is blocked:                                               YES
 PW_GRID| Cutoff [a.u.]                                                    300.0
 PW_GRID| spherical cutoff:                                                   NO
 PW_GRID|   Bounds   1            -54      53                Points:         108
 PW_GRID|   Bounds   2            -54      53                Points:         108
 PW_GRID|   Bounds   3           -150     149                Points:         300
 PW_GRID| Volume element (a.u.^3)  0.1896E-02     Volume (a.u.^3)      6635.2971
 PW_GRID| Grid span                                                    FULLSPACE
 PW_GRID|   Distribution                         Average         Max         Min
 PW_GRID|   G-Vectors                            27337.5       28728       25272
 PW_GRID|   G-Rays                                 253.1         266         234
 PW_GRID|   Real Space Points                    27337.5       28728       25272

 PW_GRID| Information for grid number                                          2
 PW_GRID| Number of the reference grid                                         1
 PW_GRID| Grid distributed over                                   128 processors
 PW_GRID| Real space group dimensions                                     8   16
 PW_GRID| the grid is blocked:                                                NO
 PW_GRID| Cutoff [a.u.]                                                    100.0
 PW_GRID| spherical cutoff:                                                   NO
 PW_GRID|   Bounds   1            -30      29                Points:          60
 PW_GRID|   Bounds   2            -30      29                Points:          60
 PW_GRID|   Bounds   3            -90      89                Points:         180
 PW_GRID| Volume element (a.u.^3)  0.1024E-01     Volume (a.u.^3)      6635.2971
 PW_GRID| Grid span                                                    FULLSPACE
 PW_GRID|   Distribution                         Average         Max         Min
 PW_GRID|   G-Vectors                             5062.5       15960           0
 PW_GRID|   G-Rays                                  84.4         266           0
 PW_GRID|   Real Space Points                     5062.5        5760        3780

 PW_GRID| Information for grid number                                          3
 PW_GRID| Number of the reference grid                                         1
 PW_GRID| Grid distributed over                                   128 processors
 PW_GRID| Real space group dimensions                                     8   16
 PW_GRID| the grid is blocked:                                                NO
 PW_GRID| Cutoff [a.u.]                                                     33.3
 PW_GRID| spherical cutoff:                                                   NO
 PW_GRID|   Bounds   1            -18      17                Points:          36
 PW_GRID|   Bounds   2            -18      17                Points:          36
 PW_GRID|   Bounds   3            -50      49                Points:         100
 PW_GRID| Volume element (a.u.^3)  0.5120E-01     Volume (a.u.^3)      6635.2971
 PW_GRID| Grid span                                                    FULLSPACE
 PW_GRID|   Distribution                         Average         Max         Min
 PW_GRID|   G-Vectors                             1012.5        9576           0
 PW_GRID|   G-Rays                                  28.1         266           0
 PW_GRID|   Real Space Points                     1012.5        1500         800

 PW_GRID| Information for grid number                                          4
 PW_GRID| Number of the reference grid                                         1
 PW_GRID| Grid distributed over                                   128 processors
 PW_GRID| Real space group dimensions                                     8   16
 PW_GRID| the grid is blocked:                                                NO
 PW_GRID| Cutoff [a.u.]                                                     11.1
 PW_GRID| spherical cutoff:                                                   NO
 PW_GRID|   Bounds   1            -10       9                Points:          20
 PW_GRID|   Bounds   2            -10       9                Points:          20
 PW_GRID|   Bounds   3            -30      29                Points:          60
 PW_GRID| Volume element (a.u.^3)  0.2765         Volume (a.u.^3)      6635.2971
 PW_GRID| Grid span                                                    FULLSPACE
 PW_GRID|   Distribution                         Average         Max         Min
 PW_GRID|   G-Vectors                              187.5        3800           0
 PW_GRID|   G-Rays                                   9.4         190           0
 PW_GRID|   Real Space Points                      187.5         360         120

 PW_GRID| Information for grid number                                          5
 PW_GRID| Number of the reference grid                                         1
 PW_GRID| Grid distributed over                                   128 processors
 PW_GRID| Real space group dimensions                                     8   16
 PW_GRID| the grid is blocked:                                                NO
 PW_GRID| Cutoff [a.u.]                                                      3.7
 PW_GRID| spherical cutoff:                                                   NO
 PW_GRID|   Bounds   1             -6       5                Points:          12
 PW_GRID|   Bounds   2             -6       5                Points:          12
 PW_GRID|   Bounds   3            -18      17                Points:          36
 PW_GRID| Volume element (a.u.^3)   1.280         Volume (a.u.^3)      6635.2971
 PW_GRID| Grid span                                                    FULLSPACE
 PW_GRID|   Distribution                         Average         Max         Min
 PW_GRID|   G-Vectors                               40.5        1296           0
 PW_GRID|   G-Rays                                   3.4         108           0
 PW_GRID|   Real Space Points                       40.5          72           0

 POISSON| Solver                                                        PERIODIC
 POISSON| Periodicity                                                        XYZ

 RS_GRID| Information for grid number                                          1
 RS_GRID|   Bounds   1            -54      53                Points:         108
 RS_GRID|   Bounds   2            -54      53                Points:         108
 RS_GRID|   Bounds   3           -150     149                Points:         300
 RS_GRID| Real space distribution over                                  8 groups
 RS_GRID| Real space distribution along direction                              2
 RS_GRID| Border size                                                         28
 RS_GRID| Real space distribution over                                 16 groups
 RS_GRID| Real space distribution along direction                              3
 RS_GRID| Border size                                                         28
 RS_GRID|   Distribution                         Average         Max         Min
 RS_GRID|   Planes                                  69.5          70          69
 RS_GRID|   Distribution                         Average         Max         Min
 RS_GRID|   Planes                                  74.8          75          74

 RS_GRID| Information for grid number                                          2
 RS_GRID|   Bounds   1            -30      29                Points:          60
 RS_GRID|   Bounds   2            -30      29                Points:          60
 RS_GRID|   Bounds   3            -90      89                Points:         180
 RS_GRID| Real space fully replicated
 RS_GRID| Group size                                                           1

 RS_GRID| Information for grid number                                          3
 RS_GRID|   Bounds   1            -18      17                Points:          36
 RS_GRID|   Bounds   2            -18      17                Points:          36
 RS_GRID|   Bounds   3            -50      49                Points:         100
 RS_GRID| Real space fully replicated
 RS_GRID| Group size                                                           1

 RS_GRID| Information for grid number                                          4
 RS_GRID|   Bounds   1            -10       9                Points:          20
 RS_GRID|   Bounds   2            -10       9                Points:          20
 RS_GRID|   Bounds   3            -30      29                Points:          60
 RS_GRID| Real space fully replicated
 RS_GRID| Group size                                                           1

 RS_GRID| Information for grid number                                          5
 RS_GRID|   Bounds   1             -6       5                Points:          12
 RS_GRID|   Bounds   2             -6       5                Points:          12
 RS_GRID|   Bounds   3            -18      17                Points:          36
 RS_GRID| Real space fully replicated
 RS_GRID| Group size                                                           1

 Spin 1

 Number of electrons:                                                        297.600
 Number of occupied orbitals:                                                298
 Number of molecular orbitals:                                               832

 Spin 2

 Number of electrons:                                                        278.400
 Number of occupied orbitals:                                                279
 Number of molecular orbitals:                                               832

 Number of orbital functions:                                                832
 Number of independent orbital functions:                                    832

 Extrapolation method: initial_guess

 Atomic guess: The first density matrix is obtained in terms of atomic orbitals
               and electronic configurations assigned to each atomic kind

 Guess for atomic kind: Ni_i

 Electronic structure
    Total number of core electrons                                         10.00
    Total number of valence electrons                                      18.00
    Total number of electrons                                              28.00
    Multiplicity                                                         doublet
    Alpha Electrons
    S   [  1.00  1.00] 1.00  1.00
    P   [  3.00] 3.00
    D      4.35
    Beta Electrons
    S   [  1.00  1.00] 1.00  1.00
    P   [  3.00] 3.00
    D      3.65


 *******************************************************************************
                  Iteration          Convergence                     Energy [au]
 *******************************************************************************
                          1         1.51729                    -167.067424631347
                          2         15.3902                    -156.642654318634
                          3         2.33433                    -168.319355313541
                          4        0.206730                    -168.609905008081
                          5        0.814175E-01                -168.612873080494
                          6        0.173318E-01                -168.613470181066
                          7        0.290432E-02                -168.613543571401
                          8        0.311825E-02                -168.613543401474
                          9        0.179670E-03                -168.613544404477
                         10        0.169386E-02                -168.613544207811
                         11        0.473341E-03                -168.613544360253
                         12        0.165417E-03                -168.613544400419
                         13        0.162622E-03                -168.613544401489
                         14        0.158325E-03                -168.613544403900
                         15        0.177007E-03                -168.613544402509
                         16        0.138916E-03                -168.613544404900
                         17        0.934549E-04                -168.613544406149
                         18        0.119916E-03                -168.613544405789
                         19        0.131607E-03                -168.613544405591
                         20        0.169309E-03                -168.613544404773
                         21        0.551337E-04                -168.613544406656
                         22        0.382664E-04                -168.613544406759
                         23        0.378942E-04                -168.613544406765
                         24        0.381089E-04                -168.613544406765
                         25        0.390835E-04                -168.613544406759
                         26        0.308614E-04                -168.613544406841
                         27        0.205044E-04                -168.613544406892
                         28        0.200942E-04                -168.613544406893
                         29        0.199375E-04                -168.613544406893
                         30        0.200198E-04                -168.613544406894
                         31        0.161325E-04                -168.613544406903
                         32        0.330614E-05                -168.613544406925
                         33        0.238713E-05                -168.613544406926
                         34        0.265439E-05                -168.613544406926
                         35        0.277073E-05                -168.613544406926
                         36        0.335175E-05                -168.613544406926
                         37        0.148809E-05                -168.613544406927
                         38        0.133447E-05                -168.613544406927
                         39        0.918735E-06                -168.613544406927

 Energy components [Hartree]           Total Energy ::         -168.613544406927
                                        Band Energy ::          -26.569761966525
                                     Kinetic Energy ::           97.306723392622
                                   Potential Energy ::         -265.920267799548
                                      Virial (-V/T) ::            2.732804666812
                                        Core Energy ::         -299.567979157577
                                          XC Energy ::          -16.227189041387
                                     Coulomb Energy ::          147.181623792037
                       Total Pseudopotential Energy ::         -396.961043505191
                       Local Pseudopotential Energy ::         -362.648291121960
                    Nonlocal Pseudopotential Energy ::          -34.312752383230
                                        Confinement ::            0.863409549921

 Orbital energies  State     Spin  L     Occupation   Energy[a.u.]    Energy[eV]

                       1    alpha  0          1.000      -4.172666   -113.544030
                       2    alpha  0          1.000      -0.181431     -4.936983
                       1     beta  0          1.000      -4.140640   -112.672541
                       2     beta  0          1.000      -0.176372     -4.799339

                       1    alpha  1          3.000      -2.578739    -70.171064
                       1     beta  1          3.000      -2.547579    -69.323162

                       1    alpha  2          4.350      -0.327039     -8.899191
                       1     beta  2          3.650      -0.300569     -8.178887


 Total Electron Density at R=0:                                         0.030422

 Guess for atomic kind: Ni_b

 Electronic structure
    Total number of core electrons                                         10.00
    Total number of valence electrons                                      18.00
    Total number of electrons                                              28.00
    Multiplicity                                                         doublet
    Alpha Electrons
    S   [  1.00  1.00] 1.00  1.00
    P   [  3.00] 3.00
    D      4.25
    Beta Electrons
    S   [  1.00  1.00] 1.00  1.00
    P   [  3.00] 3.00
    D      3.75


 *******************************************************************************
                  Iteration          Convergence                     Energy [au]
 *******************************************************************************
                          1         1.51687                    -167.065012761055
                          2         14.9817                    -156.620431300845
                          3         2.25575                    -168.317311438693
                          4        0.189210                    -168.607926092750
                          5        0.708658E-01                -168.610773319290
                          6        0.122256E-01                -168.611238205502
                          7        0.598421E-02                -168.611272268995
                          8        0.528277E-02                -168.611272438110
                          9        0.104644E-02                -168.611275321653
                         10        0.260234E-02                -168.611274926630
                         11        0.975322E-03                -168.611275328217
                         12        0.161067E-03                -168.611275447773
                         13        0.147413E-03                -168.611275446839
                         14        0.115114E-03                -168.611275449434
                         15        0.167217E-03                -168.611275445436
                         16        0.255374E-04                -168.611275450531
                         17        0.418369E-04                -168.611275450414
                         18        0.393709E-04                -168.611275450477
                         19        0.239931E-04                -168.611275450542
                         20        0.173885E-04                -168.611275450557
                         21        0.851368E-05                -168.611275450578
                         22        0.849928E-05                -168.611275450580
                         23        0.544937E-05                -168.611275450584
                         24        0.540003E-05                -168.611275450586
                         25        0.613371E-05                -168.611275450584
                         26        0.311593E-06                -168.611275450588

 Energy components [Hartree]           Total Energy ::         -168.611275450588
                                        Band Energy ::          -26.568680144499
                                     Kinetic Energy ::           97.303659243130
                                   Potential Energy ::         -265.914934693718
                                      Virial (-V/T) ::            2.732835915546
                                        Core Energy ::         -299.566189183323
                                          XC Energy ::          -16.224592878785
                                     Coulomb Energy ::          147.179506611520
                       Total Pseudopotential Energy ::         -396.956189041778
                       Local Pseudopotential Energy ::         -362.645043136649
                    Nonlocal Pseudopotential Energy ::          -34.311145905129
                                        Confinement ::            0.863406153250

 Orbital energies  State     Spin  L     Occupation   Energy[a.u.]    Energy[eV]

                       1    alpha  0          1.000      -4.168335   -113.426177
                       2    alpha  0          1.000      -0.180730     -4.917906
                       1     beta  0          1.000      -4.145459   -112.803683
                       2     beta  0          1.000      -0.177117     -4.819606

                       1    alpha  1          3.000      -2.574525    -70.056390
                       1     beta  1          3.000      -2.552268    -69.450746

                       1    alpha  2          4.250      -0.323446     -8.801405
                       1     beta  2          3.750      -0.304537     -8.286881


 Total Electron Density at R=0:                                         0.030429

 Spin 1
 Re-scaling the density matrix to get the right number of electrons for spin 1
                  # Electrons              Trace(P)               Scaling factor
                        297.600             297.600                        1.000

 Spin 2
 Re-scaling the density matrix to get the right number of electrons for spin 2
                  # Electrons              Trace(P)               Scaling factor
                        278.400             278.400                        1.000


 SCF WAVEFUNCTION OPTIMIZATION

  Step     Update method      Time    Convergence         Total energy    Change
  ------------------------------------------------------------------------------
     1 NoMix/Diag. 0.10E-02    1.9     0.87318318     -5426.4441344177 -5.43E+03
     2 Broy./Diag. 0.10E-02    1.5     0.00125461     -5310.9619435967  1.15E+02
[...]
   118 Broy./Diag. 0.10E-02    1.5     0.02725567     -5417.0684830457  5.63E-02
   119 Broy./Diag. 0.10E-02    1.5     0.05372032     -5417.1152525683 -4.68E-02
   120 Broy./Diag. 0.10E-02    1.5     0.00814317     -5417.5407054009 -4.25E-01
   121 Broy./Diag. 0.10E-02    1.5     0.01116636     -5417.6240545719 -8.33E-02
   122 Broy./Diag. 0.10E-02    1.5     0.03460578     -5417.5528206006  7.12E-02
   123 Broy./Diag. 0.10E-02    1.5     0.00841029     -5417.5069506821  4.59E-02
   124 Broy./Diag. 0.10E-02    1.5     0.02319252     -5417.5211161895 -1.42E-02
   125 Broy./Diag. 0.10E-02    1.5     0.01084140     -5417.7299350117 -2.09E-01
   126 Broy./Diag. 0.10E-02    1.5     0.00137676     -5417.9930020861 -2.63E-01
   127 Broy./Diag. 0.10E-02    1.5     0.02617353     -5418.1808632559 -1.88E-01
   128 Broy./Diag. 0.10E-02    1.5     0.02888480     -5418.3284861320 -1.48E-01
   129 Broy./Diag. 0.10E-02    1.5     0.05210710     -5418.1089294300  2.20E-01
   130 Broy./Diag. 0.10E-02    1.5     0.05441387     -5417.7478273211  3.61E-01
   131 Broy./Diag. 0.10E-02    1.5     0.03915267     -5417.7149361807  3.29E-02
   132 Broy./Diag. 0.10E-02    1.5     0.00553566     -5417.9587364106 -2.44E-01
   133 Broy./Diag. 0.10E-02    1.5     0.02135640     -5418.1072893330 -1.49E-01
   134 Broy./Diag. 0.10E-02    1.5     0.04106013     -5418.6851743174 -5.78E-01
   135 Broy./Diag. 0.10E-02    1.5     0.02751321     -5418.3121643630  3.73E-01
   136 Broy./Diag. 0.10E-02    1.5     0.01224119     -5418.3351450829 -2.30E-02
   137 Broy./Diag. 0.10E-02    1.5     0.06833919     -5418.3192626703  1.59E-02
   138 Broy./Diag. 0.10E-02    1.5     0.03478571     -5417.9661121873  3.53E-01
   139 Broy./Diag. 0.10E-02    1.5     0.00774683     -5417.6389943192  3.27E-01
   140 Broy./Diag. 0.10E-02    1.5     0.03071320     -5417.5574153847  8.16E-02
   141 Broy./Diag. 0.10E-02    1.5     0.00593413     -5417.4886117274  6.88E-02
   142 Broy./Diag. 0.10E-02    1.5     0.02221336     -5417.4742611815  1.44E-02
   143 Broy./Diag. 0.10E-02    1.5     0.00958364     -5417.6808783122 -2.07E-01
   144 Broy./Diag. 0.10E-02    1.5     0.00888130     -5417.7064259361 -2.55E-02
   145 Broy./Diag. 0.10E-02    1.5     0.02825576     -5417.7061932888  2.33E-04
   146 Broy./Diag. 0.10E-02    1.5     0.04728693     -5417.7820837806 -7.59E-02
   147 Broy./Diag. 0.10E-02    1.5     0.01039405     -5418.1232918020 -3.41E-01
   148 Broy./Diag. 0.10E-02    1.5     0.02458834     -5418.0954829426  2.78E-02
   149 Broy./Diag. 0.10E-02    1.5     0.04430696     -5417.8797637766  2.16E-01
   150 Broy./Diag. 0.10E-02    1.5     0.01186953     -5417.9219790278 -4.22E-02
   151 Broy./Diag. 0.10E-02    1.5     0.02047714     -5417.7426913806  1.79E-01
   152 Broy./Diag. 0.10E-02    1.5     0.02238548     -5417.4972003814  2.45E-01
   153 Broy./Diag. 0.10E-02    1.5     0.03142305     -5417.3402306766  1.57E-01
   154 Broy./Diag. 0.10E-02    1.5     0.03588536     -5417.6260378599 -2.86E-01
   155 Broy./Diag. 0.10E-02    1.5     0.03033462     -5417.1465176940  4.80E-01
   156 Broy./Diag. 0.10E-02    1.5     0.00281322     -5417.5080594337 -3.62E-01
   157 Broy./Diag. 0.10E-02    1.5     0.01953937     -5417.6349386692 -1.27E-01
   158 Broy./Diag. 0.10E-02    1.5     0.01274894     -5417.4903219454  1.45E-01
   159 Broy./Diag. 0.10E-02    1.5     0.02417555     -5417.4722769392  1.80E-02
   160 Broy./Diag. 0.10E-02    1.5     0.04047646     -5417.4618885573  1.04E-02
   161 Broy./Diag. 0.10E-02    1.5     0.00937980     -5417.2679551737  1.94E-01
   162 Broy./Diag. 0.10E-02    1.5     0.02660877     -5417.2559640247  1.20E-02
   163 Broy./Diag. 0.10E-02    1.5     0.03234885     -5417.5938359410 -3.38E-01
   164 Broy./Diag. 0.10E-02    1.5     0.07360914     -5417.6501283000 -5.63E-02
   165 Broy./Diag. 0.10E-02    1.5     0.02380086     -5418.3442563602 -6.94E-01
   166 Broy./Diag. 0.10E-02    1.5     0.01161061     -5418.4157706291 -7.15E-02
   167 Broy./Diag. 0.10E-02    1.5     0.01437749     -5418.4888677422 -7.31E-02
   168 Broy./Diag. 0.10E-02    1.5     0.01065020     -5418.4911698704 -2.30E-03
   169 Broy./Diag. 0.10E-02    1.5     0.02428717     -5418.7128537770 -2.22E-01
   170 Broy./Diag. 0.10E-02    1.5     0.00617929     -5418.6590524291  5.38E-02
   171 Broy./Diag. 0.10E-02    1.5     0.02375588     -5418.4206480392  2.38E-01
   172 Broy./Diag. 0.10E-02    1.6     0.04268310     -5418.7407157958 -3.20E-01
   173 Broy./Diag. 0.10E-02    1.5     0.05800542     -5418.7272113721  1.35E-02
   174 Broy./Diag. 0.10E-02    1.5     0.02320854     -5419.4054474204 -6.78E-01
   175 Broy./Diag. 0.10E-02    1.5     0.02120360     -5418.8901894734  5.15E-01
   176 Broy./Diag. 0.10E-02    1.5     0.01093484     -5418.2511297256  6.39E-01
   177 Broy./Diag. 0.10E-02    1.5     0.00909612     -5418.2428746687  8.26E-03
   178 Broy./Diag. 0.10E-02    1.5     0.00572169     -5418.7998682265 -5.57E-01
   179 Broy./Diag. 0.10E-02    1.5     0.04439369     -5419.0300799804 -2.30E-01
   180 Broy./Diag. 0.10E-02    1.5     0.01363478     -5419.2422499207 -2.12E-01
   181 Broy./Diag. 0.10E-02    1.5     0.02955067     -5419.4670870913 -2.25E-01
   182 Broy./Diag. 0.10E-02    1.5     0.01309652     -5419.8726652308 -4.06E-01
   183 Broy./Diag. 0.10E-02    1.5     0.03612255     -5419.7134540817  1.59E-01
   184 Broy./Diag. 0.10E-02    1.5     0.02335960     -5419.7395121801 -2.61E-02
   185 Broy./Diag. 0.10E-02    1.5     0.01129403     -5419.7366953311  2.82E-03
   186 Broy./Diag. 0.10E-02    1.5     0.00946856     -5419.7628478741 -2.62E-02
   187 Broy./Diag. 0.10E-02    1.5     0.00876652     -5419.6252474952  1.38E-01
   188 Broy./Diag. 0.10E-02    1.5     0.03975021     -5419.5605374364  6.47E-02
   189 Broy./Diag. 0.10E-02    1.5     0.04257270     -5419.2708679791  2.90E-01
   190 Broy./Diag. 0.10E-02    1.5     0.04788768     -5418.6978915815  5.73E-01
   191 Broy./Diag. 0.10E-02    1.5     0.01277406     -5418.4679823939  2.30E-01
   192 Broy./Diag. 0.10E-02    1.5     0.00164653     -5418.5785774216 -1.11E-01
   193 Broy./Diag. 0.10E-02    1.5     0.01983937     -5418.5999991404 -2.14E-02
   194 Broy./Diag. 0.10E-02    1.5     0.02793910     -5418.3750440466  2.25E-01
   195 Broy./Diag. 0.10E-02    1.5     0.01510145     -5418.5597082914 -1.85E-01
   196 Broy./Diag. 0.10E-02    1.5     0.05834752     -5418.7473906378 -1.88E-01
   197 Broy./Diag. 0.10E-02    1.5     0.00750766     -5418.6407647636  1.07E-01
   198 Broy./Diag. 0.10E-02    1.5     0.00723928     -5418.7304973788 -8.97E-02
   199 Broy./Diag. 0.10E-02    1.5     0.01916375     -5418.4003849864  3.30E-01
   200 Broy./Diag. 0.10E-02    1.5     0.01623882     -5418.1441116889  2.56E-01
   201 Broy./Diag. 0.10E-02    1.5     0.02813808     -5417.8558912981  2.88E-01
   202 Broy./Diag. 0.10E-02    1.5     0.01534260     -5417.7537482377  1.02E-01
   203 Broy./Diag. 0.10E-02    1.5     0.00862378     -5418.0197673211 -2.66E-01
   204 Broy./Diag. 0.10E-02    1.5     0.01388987     -5417.9768828639  4.29E-02
   205 Broy./Diag. 0.10E-02    1.5     0.01757427     -5417.7714119348  2.05E-01
   206 Broy./Diag. 0.10E-02    1.5     0.03247978     -5417.9441805615 -1.73E-01
   207 Broy./Diag. 0.10E-02    1.5     0.00507087     -5418.1262378468 -1.82E-01
   208 Broy./Diag. 0.10E-02    1.5     0.01128857     -5418.3314204178 -2.05E-01
   209 Broy./Diag. 0.10E-02    1.5     0.02582945     -5418.1321484515  1.99E-01
   210 Broy./Diag. 0.10E-02    1.5     0.02899701     -5418.5147267481 -3.83E-01
   211 Broy./Diag. 0.10E-02    1.5     0.02326801     -5418.5226107239 -7.88E-03
   212 Broy./Diag. 0.10E-02    1.6     0.01960554     -5418.5182380588  4.37E-03
   213 Broy./Diag. 0.10E-02    1.5     0.02936331     -5419.2213937574 -7.03E-01
   214 Broy./Diag. 0.10E-02    1.5     0.00841242     -5418.9973131407  2.24E-01
   215 Broy./Diag. 0.10E-02    1.5     0.02980957     -5418.5485194721  4.49E-01
   216 Broy./Diag. 0.10E-02    1.5     0.05304776     -5418.6120787714 -6.36E-02
   217 Broy./Diag. 0.10E-02    1.5     0.01584613     -5418.4662137728  1.46E-01
   218 Broy./Diag. 0.10E-02    1.5     0.03292277     -5418.7485708617 -2.82E-01
   219 Broy./Diag. 0.10E-02    1.5     0.00899680     -5418.7315159642  1.71E-02
   220 Broy./Diag. 0.10E-02    1.5     0.02719824     -5418.7273892318  4.13E-03
   221 Broy./Diag. 0.10E-02    1.5     0.01706726     -5418.8075279685 -8.01E-02
   222 Broy./Diag. 0.10E-02    1.5     0.01446415     -5419.0872321760 -2.80E-01
   223 Broy./Diag. 0.10E-02    1.5     0.01038525     -5418.9856535604  1.02E-01
   224 Broy./Diag. 0.10E-02    1.5     0.01622248     -5418.8008285042  1.85E-01
   225 Broy./Diag. 0.10E-02    1.5     0.01832814     -5418.8859683576 -8.51E-02
   226 Broy./Diag. 0.10E-02    1.6     0.03189296     -5418.8764880175  9.48E-03
   227 Broy./Diag. 0.10E-02    1.5     0.02135392     -5418.8298233333  4.67E-02
   228 Broy./Diag. 0.10E-02    1.5     0.01536207     -5419.1641593528 -3.34E-01
   229 Broy./Diag. 0.10E-02    1.5     0.00730936     -5419.0798258843  8.43E-02
   230 Broy./Diag. 0.10E-02    1.5     0.02233748     -5419.1681070567 -8.83E-02
   231 Broy./Diag. 0.10E-02    1.5     0.00723665     -5418.8875554072  2.81E-01
   232 Broy./Diag. 0.10E-02    1.5     0.04293849     -5418.9669771247 -7.94E-02
   233 Broy./Diag. 0.10E-02    1.5     0.02811907     -5418.9265325780  4.04E-02
   234 Broy./Diag. 0.10E-02    1.5     0.02712033     -5419.1483581272 -2.22E-01
   235 Broy./Diag. 0.10E-02    1.5     0.01452743     -5419.2150813493 -6.67E-02
   236 Broy./Diag. 0.10E-02    1.5     0.03712327     -5419.2072178915  7.86E-03
   237 Broy./Diag. 0.10E-02    1.5     0.03238002     -5419.3643795413 -1.57E-01
   238 Broy./Diag. 0.10E-02    1.5     0.00902080     -5419.1436070462  2.21E-01
   239 Broy./Diag. 0.10E-02    1.5     0.11987843     -5419.1309629184  1.26E-02
   240 Broy./Diag. 0.10E-02    1.5     0.04754381     -5419.3950031092 -2.64E-01
   241 Broy./Diag. 0.10E-02    1.5     0.02273595     -5419.7273949838 -3.32E-01
   242 Broy./Diag. 0.10E-02    1.5     0.02134648     -5419.2590521065  4.68E-01
   243 Broy./Diag. 0.10E-02    1.5     0.00204626     -5419.0831049202  1.76E-01
   244 Broy./Diag. 0.10E-02    1.5     0.03540320     -5418.9970926639  8.60E-02
   245 Broy./Diag. 0.10E-02    1.5     0.01455839     -5419.2755167765 -2.78E-01
   246 Broy./Diag. 0.10E-02    1.5     0.00988469     -5419.1683615455  1.07E-01
   247 Broy./Diag. 0.10E-02    1.5     0.01270781     -5419.0521515930  1.16E-01
   248 Broy./Diag. 0.10E-02    1.5     0.01362540     -5418.9944226064  5.77E-02
   249 Broy./Diag. 0.10E-02    1.5     0.01741774     -5418.8943598310  1.00E-01
   250 Broy./Diag. 0.10E-02    1.5     0.01415063     -5418.9122261151 -1.79E-02
   251 Broy./Diag. 0.10E-02    1.5     0.00535192     -5418.7307523258  1.81E-01
   252 Broy./Diag. 0.10E-02    1.5     0.03041708     -5418.9004277902 -1.70E-01
   253 Broy./Diag. 0.10E-02    1.5     0.01190868     -5418.9288836458 -2.85E-02
   254 Broy./Diag. 0.10E-02    1.5     0.01308382     -5418.9666930879 -3.78E-02
   255 Broy./Diag. 0.10E-02    1.5     0.01346428     -5418.6739141639  2.93E-01
   256 Broy./Diag. 0.10E-02    1.5     0.01286373     -5418.6871637702 -1.32E-02
   257 Broy./Diag. 0.10E-02    1.5     0.01700766     -5419.0417311839 -3.55E-01
   258 Broy./Diag. 0.10E-02    1.5     0.00889248     -5419.0149612391  2.68E-02
   259 Broy./Diag. 0.10E-02    1.5     0.02617280     -5418.8195427208  1.95E-01
   260 Broy./Diag. 0.10E-02    1.5     0.04938286     -5418.8515757023 -3.20E-02
   261 Broy./Diag. 0.10E-02    1.5     0.02978512     -5418.5203182509  3.31E-01
   262 Broy./Diag. 0.10E-02    1.5     0.02139518     -5418.8819904514 -3.62E-01
   263 Broy./Diag. 0.10E-02    1.5     0.02519046     -5418.5767239819  3.05E-01
   264 Broy./Diag. 0.10E-02    1.5     0.00174451     -5418.9157907944 -3.39E-01
   265 Broy./Diag. 0.10E-02    1.5     0.04173904     -5418.9183064859 -2.52E-03
   266 Broy./Diag. 0.10E-02    1.5     0.00732274     -5418.9220993193 -3.79E-03
   267 Broy./Diag. 0.10E-02    1.5     0.04943638     -5419.1145298957 -1.92E-01
   268 Broy./Diag. 0.10E-02    1.5     0.00333463     -5419.1810503058 -6.65E-02
   269 Broy./Diag. 0.10E-02    1.5     0.02615520     -5419.2257518346 -4.47E-02
   270 Broy./Diag. 0.10E-02    1.5     0.01883351     -5419.2708124655 -4.51E-02
   271 Broy./Diag. 0.10E-02    1.5     0.04739688     -5419.2589486365  1.19E-02
   272 Broy./Diag. 0.10E-02    1.5     0.04131632     -5419.0160296027  2.43E-01
   273 Broy./Diag. 0.10E-02    1.5     0.02501887     -5419.1384584532 -1.22E-01
   274 Broy./Diag. 0.10E-02    1.5     0.00353463     -5418.9637755126  1.75E-01
   275 Broy./Diag. 0.10E-02    1.5     0.04127183     -5418.7838597527  1.80E-01
   276 Broy./Diag. 0.10E-02    1.5     0.01245715     -5418.2713061697  5.13E-01
   277 Broy./Diag. 0.10E-02    1.5     0.01193036     -5418.0924980657  1.79E-01
   278 Broy./Diag. 0.10E-02    1.5     0.02985574     -5418.1295649577 -3.71E-02
   279 Broy./Diag. 0.10E-02    1.5     0.01908527     -5418.2039074299 -7.43E-02
   280 Broy./Diag. 0.10E-02    1.5     0.00333951     -5418.3088085608 -1.05E-01
   281 Broy./Diag. 0.10E-02    1.5     0.02271955     -5418.2686622134  4.01E-02
   282 Broy./Diag. 0.10E-02    1.5     0.05099231     -5418.0606698252  2.08E-01
   283 Broy./Diag. 0.10E-02    1.5     0.00362521     -5418.0914114282 -3.07E-02
   284 Broy./Diag. 0.10E-02    1.5     0.04588903     -5418.3818242068 -2.90E-01
   285 Broy./Diag. 0.10E-02    1.5     0.09608459     -5418.6394105707 -2.58E-01
   286 Broy./Diag. 0.10E-02    1.5     0.01843654     -5418.6219420771  1.75E-02
   287 Broy./Diag. 0.10E-02    1.5     0.01323703     -5418.6232301804 -1.29E-03
   288 Broy./Diag. 0.10E-02    1.5     0.02475483     -5418.6945929053 -7.14E-02
   289 Broy./Diag. 0.10E-02    1.5     0.00760835     -5418.7831491751 -8.86E-02
   290 Broy./Diag. 0.10E-02    1.5     0.02190547     -5418.8413374347 -5.82E-02
   291 Broy./Diag. 0.10E-02    1.5     0.01339946     -5418.3156409245  5.26E-01
   292 Broy./Diag. 0.10E-02    1.5     0.04400141     -5418.0329795656  2.83E-01
   293 Broy./Diag. 0.10E-02    1.5     0.01997695     -5418.2453788800 -2.12E-01
   294 Broy./Diag. 0.10E-02    1.5     0.01238831     -5418.3795941976 -1.34E-01
   295 Broy./Diag. 0.10E-02    1.5     0.01884294     -5418.4913048774 -1.12E-01
   296 Broy./Diag. 0.10E-02    1.5     0.04251789     -5418.4949422786 -3.64E-03
   297 Broy./Diag. 0.10E-02    1.5     0.03604238     -5418.7247615550 -2.30E-01
   298 Broy./Diag. 0.10E-02    1.5     0.01574073     -5418.8874320538 -1.63E-01
   299 Broy./Diag. 0.10E-02    1.5     0.02326393     -5418.7009801264  1.86E-01
   300 Broy./Diag. 0.10E-02    1.5     0.04127112     -5418.5140042684  1.87E-01
   301 Broy./Diag. 0.10E-02    1.5     0.02156233     -5418.5792558421 -6.53E-02
   302 Broy./Diag. 0.10E-02    1.5     0.02066159     -5418.5269382051  5.23E-02
   303 Broy./Diag. 0.10E-02    1.5     0.01905819     -5418.6992003653 -1.72E-01
   304 Broy./Diag. 0.10E-02    1.5     0.03173558     -5418.5365737068  1.63E-01
   305 Broy./Diag. 0.10E-02    1.5     0.02138024     -5418.0882666217  4.48E-01
   306 Broy./Diag. 0.10E-02    1.5     0.01166671     -5418.1660208902 -7.78E-02
   307 Broy./Diag. 0.10E-02    1.5     0.00888039     -5418.3687961971 -2.03E-01
   308 Broy./Diag. 0.10E-02    1.5     0.00932679     -5418.5083459366 -1.40E-01
   309 Broy./Diag. 0.10E-02    1.5     0.02459707     -5418.4633579109  4.50E-02
   310 Broy./Diag. 0.10E-02    1.5     0.00616419     -5418.4606366370  2.72E-03
   311 Broy./Diag. 0.10E-02    1.5     0.02646253     -5418.4972136677 -3.66E-02
   312 Broy./Diag. 0.10E-02    1.5     0.00562869     -5418.7062621644 -2.09E-01
   313 Broy./Diag. 0.10E-02    1.5     0.01446366     -5418.7310970928 -2.48E-02
   314 Broy./Diag. 0.10E-02    1.5     0.00557641     -5418.7979703789 -6.69E-02
   315 Broy./Diag. 0.10E-02    1.5     0.01370649     -5418.8053208168 -7.35E-03
   316 Broy./Diag. 0.10E-02    1.5     0.01837990     -5418.7230366876  8.23E-02
   317 Broy./Diag. 0.10E-02    1.5     0.03120772     -5418.8224996310 -9.95E-02
   318 Broy./Diag. 0.10E-02    1.5     0.02625584     -5419.1902066916 -3.68E-01
   319 Broy./Diag. 0.10E-02    1.5     0.02017955     -5419.0276559923  1.63E-01
   320 Broy./Diag. 0.10E-02    1.5     0.03285341     -5418.6411869059  3.86E-01
   321 Broy./Diag. 0.10E-02    1.5     0.01205991     -5419.0070579707 -3.66E-01
   322 Broy./Diag. 0.10E-02    1.5     0.02997920     -5418.7443829042  2.63E-01
   323 Broy./Diag. 0.10E-02    1.5     0.02315098     -5418.9561723553 -2.12E-01
   324 Broy./Diag. 0.10E-02    1.5     0.00228981     -5418.8311356898  1.25E-01
   325 Broy./Diag. 0.10E-02    1.5     0.00772232     -5418.8486904983 -1.76E-02
   326 Broy./Diag. 0.10E-02    1.5     0.02181985     -5418.7313278033  1.17E-01
   327 Broy./Diag. 0.10E-02    1.5     0.05393468     -5418.8035952004 -7.23E-02
   328 Broy./Diag. 0.10E-02    1.5     0.02932212     -5418.1857320497  6.18E-01
   329 Broy./Diag. 0.10E-02    1.5     0.01536898     -5418.1721147330  1.36E-02
   330 Broy./Diag. 0.10E-02    1.5     0.03287548     -5418.0250580583  1.47E-01
   331 Broy./Diag. 0.10E-02    1.5     0.01212054     -5417.9996108992  2.54E-02
   332 Broy./Diag. 0.10E-02    1.5     0.00625855     -5417.9100017865  8.96E-02
   333 Broy./Diag. 0.10E-02    1.5     0.04155932     -5418.3518568500 -4.42E-01
   334 Broy./Diag. 0.10E-02    1.5     0.00906310     -5419.3082727475 -9.56E-01
   335 Broy./Diag. 0.10E-02    1.5     0.01594412     -5419.4279111667 -1.20E-01
   336 Broy./Diag. 0.10E-02    1.5     0.00553196     -5419.1918292912  2.36E-01
   337 Broy./Diag. 0.10E-02    1.5     0.02980948     -5418.9577928496  2.34E-01
   338 Broy./Diag. 0.10E-02    1.5     0.00780488     -5418.4944345656  4.63E-01
   339 Broy./Diag. 0.10E-02    1.5     0.01677048     -5418.2929525340  2.01E-01
   340 Broy./Diag. 0.10E-02    1.5     0.00403592     -5417.8988152995  3.94E-01
   341 Broy./Diag. 0.10E-02    1.5     0.00386453     -5417.8368935712  6.19E-02
   342 Broy./Diag. 0.10E-02    1.5     0.01445966     -5417.8814814371 -4.46E-02
   343 Broy./Diag. 0.10E-02    1.5     0.02310583     -5418.4026382781 -5.21E-01
   344 Broy./Diag. 0.10E-02    1.5     0.01060881     -5418.9630972398 -5.60E-01
   345 Broy./Diag. 0.10E-02    1.5     0.00843193     -5418.7779698544  1.85E-01
   346 Broy./Diag. 0.10E-02    1.5     0.01123189     -5418.6729317789  1.05E-01
   347 Broy./Diag. 0.10E-02    1.5     0.00577514     -5418.3781032359  2.95E-01
   348 Broy./Diag. 0.10E-02    1.5     0.00619677     -5418.5276112635 -1.50E-01
   349 Broy./Diag. 0.10E-02    1.6     0.00472267     -5418.5133608113  1.43E-02
   350 Broy./Diag. 0.10E-02    1.5     0.00947953     -5418.3109786724  2.02E-01
   351 Broy./Diag. 0.10E-02    1.5     0.00735859     -5418.1453345998  1.66E-01
   352 Broy./Diag. 0.10E-02    1.5     0.01071863     -5418.3122004451 -1.67E-01
   353 Broy./Diag. 0.10E-02    1.5     0.00393571     -5418.1591858471  1.53E-01
   354 Broy./Diag. 0.10E-02    1.5     0.00358062     -5418.3745034307 -2.15E-01
   355 Broy./Diag. 0.10E-02    1.5     0.01393865     -5418.3609195881  1.36E-02
   356 Broy./Diag. 0.10E-02    1.5     0.01576997     -5418.5240238383 -1.63E-01
   357 Broy./Diag. 0.10E-02    1.5     0.01081721     -5418.3709809053  1.53E-01
   358 Broy./Diag. 0.10E-02    1.5     0.00963064     -5418.7090758130 -3.38E-01
   359 Broy./Diag. 0.10E-02    1.5     0.00212511     -5418.6726634671  3.64E-02
   360 Broy./Diag. 0.10E-02    1.5     0.00770047     -5418.7324636195 -5.98E-02
   361 Broy./Diag. 0.10E-02    1.5     0.00636591     -5418.6287283129  1.04E-01
   362 Broy./Diag. 0.10E-02    1.5     0.01127909     -5418.2840847402  3.45E-01
   363 Broy./Diag. 0.10E-02    1.5     0.01508903     -5418.0681675773  2.16E-01
