 DBCSR| CPU Multiplication driver                                           XSMM
 DBCSR| Multrec recursion limit                                              512
 DBCSR| Multiplication stack size                                           1000
 DBCSR| Maximum elements for images                                    UNLIMITED
 DBCSR| Multiplicative factor virtual images                                   1
 DBCSR| Use multiplication densification                                       T
 DBCSR| Multiplication size stacks                                             3
 DBCSR| Number of 3D layers                                               SINGLE
 DBCSR| Use MPI memory allocation                                              T
 DBCSR| Use RMA algorithm                                                      F
 DBCSR| Use Communication thread                                               T
 DBCSR| Communication thread load                                             87


  **** **** ******  **  PROGRAM STARTED AT               2022-10-13 11:54:25.621
 ***** ** ***  *** **   PROGRAM STARTED ON                         node-c12g-029
 **    ****   ******    PROGRAM STARTED BY                               mmm1169
 ***** **    ** ** **   PROGRAM PROCESS ID                                 81503
  **** **  *******  **  PROGRAM STARTED IN /lustre/scratch/mmm1169/work/other/cp
                                           2k_forum/ni_bulk/aspc-broyden-222-sme
                                           ar-slab/slab_multiplicity-33-alpha-5e
                                           -1-beta-5e-1-scf-1e-3-1e-4

 CP2K| version string:                                          CP2K version 7.1
 CP2K| source code revision number:                                  git:e635599
 CP2K| cp2kflags: libint fftw3 libxc elpa parallel mpi3 scalapack quip xsmm spgl
 CP2K|            ib
 CP2K| is freely available from                            https://www.cp2k.org/
 CP2K| Program compiled at                          Wed  8 Jan 12:34:35 GMT 2020
 CP2K| Program compiled on                                               login01
 CP2K| Program compiled for                                                local
 CP2K| Data directory path     /shared/ucl/apps/cp2k/7.1/gnu-4.9.2/cp2k-7.1/data
 CP2K| Input file name                                                 input.inp

 GLOBAL| Force Environment number                                              1
 GLOBAL| Basis set file name                                        BASIS_MOLOPT
 GLOBAL| Potential file name                                      GTH_POTENTIALS
 GLOBAL| MM Potential file name                                     MM_POTENTIAL
 GLOBAL| Coordinate file name                                         Ni-222.xyz
 GLOBAL| Method name                                                        CP2K
 GLOBAL| Project name                                                   Bulk_Opt
 GLOBAL| Preferred FFT library                                             FFTW3
 GLOBAL| Preferred diagonalization lib.                                     ELPA
 GLOBAL| Run type                                                         ENERGY
 GLOBAL| All-to-all communication in single precision                          F
 GLOBAL| FFTs using library dependent lengths                                  F
 GLOBAL| Global print level                                               MEDIUM
 GLOBAL| MPI I/O enabled                                                       T
 GLOBAL| Total number of message passing processes                            80
 GLOBAL| Number of threads for this process                                    1
 GLOBAL| This output is from process                                           0
 GLOBAL| CPU model name                 Intel(R) Xeon(R) Gold 6248 CPU @ 2.50GHz
 GLOBAL| CPUID                                                              1003

 MEMORY| system memory details [Kb]
 MEMORY|                        rank 0           min           max       average
 MEMORY| MemTotal            197730148     197730148     197730152     197730150
 MEMORY| MemFree             177637784     177637784     177944828     177791306
 MEMORY| Buffers                     0             0             0             0
 MEMORY| Cached               11127316      10894248      11127316      11010782
 MEMORY| Slab                   826520        783420        826520        804970
 MEMORY| SReclaimable           214688        201632        214688        208160
 MEMORY| MemLikelyFree       188979788     188979788     189040708     189010248


 *** Fundamental physical constants (SI units) ***

 *** Literature: B. J. Mohr and B. N. Taylor,
 ***             CODATA recommended values of the fundamental physical
 ***             constants: 2006, Web Version 5.1
 ***             http://physics.nist.gov/constants

 Speed of light in vacuum [m/s]                             2.99792458000000E+08
 Magnetic constant or permeability of vacuum [N/A**2]       1.25663706143592E-06
 Electric constant or permittivity of vacuum [F/m]          8.85418781762039E-12
 Planck constant (h) [J*s]                                  6.62606896000000E-34
 Planck constant (h-bar) [J*s]                              1.05457162825177E-34
 Elementary charge [C]                                      1.60217648700000E-19
 Electron mass [kg]                                         9.10938215000000E-31
 Electron g factor [ ]                                     -2.00231930436220E+00
 Proton mass [kg]                                           1.67262163700000E-27
 Fine-structure constant                                    7.29735253760000E-03
 Rydberg constant [1/m]                                     1.09737315685270E+07
 Avogadro constant [1/mol]                                  6.02214179000000E+23
 Boltzmann constant [J/K]                                   1.38065040000000E-23
 Atomic mass unit [kg]                                      1.66053878200000E-27
 Bohr radius [m]                                            5.29177208590000E-11

 *** Conversion factors ***

 [u] -> [a.u.]                                              1.82288848426455E+03
 [Angstrom] -> [Bohr] = [a.u.]                              1.88972613288564E+00
 [a.u.] = [Bohr] -> [Angstrom]                              5.29177208590000E-01
 [a.u.] -> [s]                                              2.41888432650478E-17
 [a.u.] -> [fs]                                             2.41888432650478E-02
 [a.u.] -> [J]                                              4.35974393937059E-18
 [a.u.] -> [N]                                              8.23872205491840E-08
 [a.u.] -> [K]                                              3.15774647902944E+05
 [a.u.] -> [kJ/mol]                                         2.62549961709828E+03
 [a.u.] -> [kcal/mol]                                       6.27509468713739E+02
 [a.u.] -> [Pa]                                             2.94210107994716E+13
 [a.u.] -> [bar]                                            2.94210107994716E+08
 [a.u.] -> [atm]                                            2.90362800883016E+08
 [a.u.] -> [eV]                                             2.72113838565563E+01
 [a.u.] -> [Hz]                                             6.57968392072181E+15
 [a.u.] -> [1/cm] (wave numbers)                            2.19474631370540E+05
 [a.u./Bohr**2] -> [1/cm]                                   5.14048714338585E+03
 

 CELL_TOP| Volume [angstrom^3]:                                          983.250
 CELL_TOP| Vector a [angstrom     7.012     0.000     0.000    |a| =       7.012
 CELL_TOP| Vector b [angstrom     0.000     7.012     0.000    |b| =       7.012
 CELL_TOP| Vector c [angstrom     0.000     0.000    20.000    |c| =      20.000
 CELL_TOP| Angle (b,c), alpha [degree]:                                   90.000
 CELL_TOP| Angle (a,c), beta  [degree]:                                   90.000
 CELL_TOP| Angle (a,b), gamma [degree]:                                   90.000
 CELL_TOP| Numerically orthorhombic:                                         YES

 GENERATE|  Preliminary Number of Bonds generated:                             0
 GENERATE|  Achieved consistency in connectivity generation.

 CELL| Volume [angstrom^3]:                                              983.250
 CELL| Vector a [angstrom]:       7.012     0.000     0.000    |a| =       7.012
 CELL| Vector b [angstrom]:       0.000     7.012     0.000    |b| =       7.012
 CELL| Vector c [angstrom]:       0.000     0.000    20.000    |c| =      20.000
 CELL| Angle (b,c), alpha [degree]:                                       90.000
 CELL| Angle (a,c), beta  [degree]:                                       90.000
 CELL| Angle (a,b), gamma [degree]:                                       90.000
 CELL| Numerically orthorhombic:                                             YES

 CELL_REF| Volume [angstrom^3]:                                          983.250
 CELL_REF| Vector a [angstrom     7.012     0.000     0.000    |a| =       7.012
 CELL_REF| Vector b [angstrom     0.000     7.012     0.000    |b| =       7.012
 CELL_REF| Vector c [angstrom     0.000     0.000    20.000    |c| =      20.000
 CELL_REF| Angle (b,c), alpha [degree]:                                   90.000
 CELL_REF| Angle (a,c), beta  [degree]:                                   90.000
 CELL_REF| Angle (a,b), gamma [degree]:                                   90.000
 CELL_REF| Numerically orthorhombic:                                         YES

 *******************************************************************************
 *******************************************************************************
 **                                                                           **
 **     #####                         ##              ##                      **
 **    ##   ##            ##          ##              ##                      **
 **   ##     ##                       ##            ######                    **
 **   ##     ##  ##   ##  ##   #####  ##  ##   ####   ##    #####    #####    **
 **   ##     ##  ##   ##  ##  ##      ## ##   ##      ##   ##   ##  ##   ##   **
 **   ##  ## ##  ##   ##  ##  ##      ####     ###    ##   ######   ######    **
 **    ##  ###   ##   ##  ##  ##      ## ##      ##   ##   ##       ##        **
 **     #######   #####   ##   #####  ##  ##  ####    ##    #####   ##        **
 **           ##                                                    ##        **
 **                                                                           **
 **                                                ... make the atoms dance   **
 **                                                                           **
 **            Copyright (C) by CP2K developers group (2000 - 2019)           **
 **                                                                           **
 *******************************************************************************

 *** WARNING in qs_environment.F:1296 :: More added MOs requested for beta ***
 *** spin than available.                                                  ***


 *** WARNING in qs_environment.F:1310 :: More added MOs requested than ***
 *** available. The full set of unoccupied MOs will be used.           ***


 DFT| Spin unrestricted (spin-polarized) Kohn-Sham calculation               UKS
 DFT| Multiplicity                                                            33
 DFT| Number of spin states                                                    2
 DFT| Charge                                                                   0
 DFT| Self-interaction correction (SIC)                                       NO
 DFT| Cutoffs: density                                              1.000000E-10
 DFT|          gradient                                             1.000000E-10
 DFT|          tau                                                  1.000000E-10
 DFT|          cutoff_smoothing_range                               0.000000E+00
 DFT| XC density smoothing                                                  NONE
 DFT| XC derivatives                                                          PW
 FUNCTIONAL| ROUTINE=NEW
 FUNCTIONAL| PBE:
 FUNCTIONAL| J.P.Perdew, K.Burke, M.Ernzerhof, Phys. Rev. Letter, vol. 77, n 18,
 FUNCTIONAL|  pp. 3865-3868, (1996){spin polarized}                             
 vdW POTENTIAL|                                                   Pair Potential
 vdW POTENTIAL|          DFT-D3 (Version 3.1)
 vdW POTENTIAL|          Potential Form: S. Grimme et al, JCP 132: 154104 (2010)
 vdW POTENTIAL|          Zero Damping
 vdW POTENTIAL|          Cutoff Radius [Bohr]:                             20.00
 vdW POTENTIAL|          s6 Scaling Factor:                               1.0000
 vdW POTENTIAL|          sr6 Scaling Factor:                              1.2170
 vdW POTENTIAL|          s8 Scaling Factor:                               0.7220
 vdW POTENTIAL|          Cutoff for CN calculation:                   0.1000E-05

 QS| Method:                                                                 GPW
 QS| Density plane wave grid type                        NON-SPHERICAL FULLSPACE
 QS| Number of grid levels:                                                    5
 QS| Density cutoff [a.u.]:                                                300.0
 QS| Multi grid cutoff [a.u.]: 1) grid level                               300.0
 QS|                           2) grid level                               100.0
 QS|                           3) grid level                                33.3
 QS|                           4) grid level                                11.1
 QS|                           5) grid level                                 3.7
 QS| Grid level progression factor:                                          3.0
 QS| Relative density cutoff [a.u.]:                                        30.0
 QS| Consistent realspace mapping and integration 
 QS| Interaction thresholds: eps_pgf_orb:                                1.0E-06
 QS|                         eps_filter_matrix:                          0.0E+00
 QS|                         eps_core_charge:                            1.0E-14
 QS|                         eps_rho_gspace:                             1.0E-12
 QS|                         eps_rho_rspace:                             1.0E-12
 QS|                         eps_gvg_rspace:                             1.0E-06
 QS|                         eps_ppl:                                    1.0E-02
 QS|                         eps_ppnl:                                   1.0E-08


 ATOMIC KIND INFORMATION

  1. Atomic kind: Ni                                    Number of atoms:      32

     Orbital Basis Set                                        DZVP-MOLOPT-SR-GTH

       Number of orbital shell sets:                                           1
       Number of orbital shells:                                               8
       Number of primitive Cartesian functions:                                6
       Number of Cartesian basis functions:                                   31
       Number of spherical basis functions:                                   26
       Norm type:                                                              2

       Normalised Cartesian orbitals:

                        Set   Shell   Orbital            Exponent    Coefficient

                          1       1    2s               10.077428      -0.684558
                                                         5.847736      -0.844524
                                                         2.494033       1.088856
                                                         0.988355       0.395503
                                                         0.344978       0.010224
                                                         0.099466      -0.003250

                          1       2    3s               10.077428       0.096747
                                                         5.847736       0.162504
                                                         2.494033      -0.297192
                                                         0.988355      -0.319752
                                                         0.344978       0.088318
                                                         0.099466       0.118587

                          1       3    4s               10.077428       0.036437
                                                         5.847736      -0.381480
                                                         2.494033       0.003759
                                                         0.988355      -1.048256
                                                         0.344978       0.855825
                                                         0.099466      -0.176350

                          1       4    3px              10.077428      -3.133913
                                                         5.847736       3.027656
                                                         2.494033       2.353227
                                                         0.988355       0.554184
                                                         0.344978       0.019462
                                                         0.099466      -0.000291
                          1       4    3py              10.077428      -3.133913
                                                         5.847736       3.027656
                                                         2.494033       2.353227
                                                         0.988355       0.554184
                                                         0.344978       0.019462
                                                         0.099466      -0.000291
                          1       4    3pz              10.077428      -3.133913
                                                         5.847736       3.027656
                                                         2.494033       2.353227
                                                         0.988355       0.554184
                                                         0.344978       0.019462
                                                         0.099466      -0.000291

                          1       5    4px              10.077428      -0.112729
                                                         5.847736      -0.114008
                                                         2.494033      -0.347303
                                                         0.988355      -0.110323
                                                         0.344978       0.154096
                                                         0.099466       0.058386
                          1       5    4py              10.077428      -0.112729
                                                         5.847736      -0.114008
                                                         2.494033      -0.347303
                                                         0.988355      -0.110323
                                                         0.344978       0.154096
                                                         0.099466       0.058386
                          1       5    4pz              10.077428      -0.112729
                                                         5.847736      -0.114008
                                                         2.494033      -0.347303
                                                         0.988355      -0.110323
                                                         0.344978       0.154096
                                                         0.099466       0.058386

                          1       6    4dx2             10.077428       8.232726
                                                         5.847736       9.105758
                                                         2.494033       2.849835
                                                         0.988355       0.554319
                                                         0.344978       0.067245
                                                         0.099466       0.001940
                          1       6    4dxy             10.077428      14.259500
                                                         5.847736      15.771636
                                                         2.494033       4.936060
                                                         0.988355       0.960109
                                                         0.344978       0.116472
                                                         0.099466       0.003360
                          1       6    4dxz             10.077428      14.259500
                                                         5.847736      15.771636
                                                         2.494033       4.936060
                                                         0.988355       0.960109
                                                         0.344978       0.116472
                                                         0.099466       0.003360
                          1       6    4dy2             10.077428       8.232726
                                                         5.847736       9.105758
                                                         2.494033       2.849835
                                                         0.988355       0.554319
                                                         0.344978       0.067245
                                                         0.099466       0.001940
                          1       6    4dyz             10.077428      14.259500
                                                         5.847736      15.771636
                                                         2.494033       4.936060
                                                         0.988355       0.960109
                                                         0.344978       0.116472
                                                         0.099466       0.003360
                          1       6    4dz2             10.077428       8.232726
                                                         5.847736       9.105758
                                                         2.494033       2.849835
                                                         0.988355       0.554319
                                                         0.344978       0.067245
                                                         0.099466       0.001940

                          1       7    5dx2             10.077428      -2.715373
                                                         5.847736      -4.020640
                                                         2.494033      -1.397569
                                                         0.988355      -0.076143
                                                         0.344978       0.033435
                                                         0.099466       0.026032
                          1       7    5dxy             10.077428      -4.703164
                                                         5.847736      -6.963952
                                                         2.494033      -2.420661
                                                         0.988355      -0.131883
                                                         0.344978       0.057911
                                                         0.099466       0.045088
                          1       7    5dxz             10.077428      -4.703164
                                                         5.847736      -6.963952
                                                         2.494033      -2.420661
                                                         0.988355      -0.131883
                                                         0.344978       0.057911
                                                         0.099466       0.045088
                          1       7    5dy2             10.077428      -2.715373
                                                         5.847736      -4.020640
                                                         2.494033      -1.397569
                                                         0.988355      -0.076143
                                                         0.344978       0.033435
                                                         0.099466       0.026032
                          1       7    5dyz             10.077428      -4.703164
                                                         5.847736      -6.963952
                                                         2.494033      -2.420661
                                                         0.988355      -0.131883
                                                         0.344978       0.057911
                                                         0.099466       0.045088
                          1       7    5dz2             10.077428      -2.715373
                                                         5.847736      -4.020640
                                                         2.494033      -1.397569
                                                         0.988355      -0.076143
                                                         0.344978       0.033435
                                                         0.099466       0.026032

                          1       8    5fx3             10.077428      -0.467694
                                                         5.847736       0.618100
                                                         2.494033       0.066069
                                                         0.988355       0.262898
                                                         0.344978       0.004720
                                                         0.099466       0.007748
                          1       8    5fx2y            10.077428      -1.045795
                                                         5.847736       1.382114
                                                         2.494033       0.147734
                                                         0.988355       0.587859
                                                         0.344978       0.010555
                                                         0.099466       0.017325
                          1       8    5fx2z            10.077428      -1.045795
                                                         5.847736       1.382114
                                                         2.494033       0.147734
                                                         0.988355       0.587859
                                                         0.344978       0.010555
                                                         0.099466       0.017325
                          1       8    5fxy2            10.077428      -1.045795
                                                         5.847736       1.382114
                                                         2.494033       0.147734
                                                         0.988355       0.587859
                                                         0.344978       0.010555
                                                         0.099466       0.017325
                          1       8    5fxyz            10.077428      -1.811371
                                                         5.847736       2.393892
                                                         2.494033       0.255883
                                                         0.988355       1.018201
                                                         0.344978       0.018282
                                                         0.099466       0.030008
                          1       8    5fxz2            10.077428      -1.045795
                                                         5.847736       1.382114
                                                         2.494033       0.147734
                                                         0.988355       0.587859
                                                         0.344978       0.010555
                                                         0.099466       0.017325
                          1       8    5fy3             10.077428      -0.467694
                                                         5.847736       0.618100
                                                         2.494033       0.066069
                                                         0.988355       0.262898
                                                         0.344978       0.004720
                                                         0.099466       0.007748
                          1       8    5fy2z            10.077428      -1.045795
                                                         5.847736       1.382114
                                                         2.494033       0.147734
                                                         0.988355       0.587859
                                                         0.344978       0.010555
                                                         0.099466       0.017325
                          1       8    5fyz2            10.077428      -1.045795
                                                         5.847736       1.382114
                                                         2.494033       0.147734
                                                         0.988355       0.587859
                                                         0.344978       0.010555
                                                         0.099466       0.017325
                          1       8    5fz3             10.077428      -0.467694
                                                         5.847736       0.618100
                                                         2.494033       0.066069
                                                         0.988355       0.262898
                                                         0.344978       0.004720
                                                         0.099466       0.007748

     GTH Potential information for                                       GTH-PBE

       Description:                       Goedecker-Teter-Hutter pseudopotential
                                           Goedecker et al., PRB 54, 1703 (1996)
                                          Hartwigsen et al., PRB 58, 3641 (1998)
                                                      Krack, TCA 114, 145 (2005)

       Gaussian exponent of the core charge distribution:               4.081633
       Electronic configuration (s p d ...):                           4   6   8

       Parameters of the local part of the GTH pseudopotential:

                          rloc        C1          C2          C3          C4
                        0.350000    2.102166    0.648484

       Parameters of the non-local part of the GTH pseudopotential:

                   l      r(l)      h(i,j,l)

                   0    0.261295    0.622658    9.970227
                                    9.970227  -12.871507
                   1    0.224253  -11.142708   12.429566
                                   12.429566  -14.706861
                   2    0.215348  -12.628146


 MOLECULE KIND INFORMATION


 All atoms are their own molecule, skipping detailed information


 TOTAL NUMBERS AND MAXIMUM NUMBERS

  Total number of            - Atomic kinds:                                   1
                             - Atoms:                                         32
                             - Shell sets:                                    32
                             - Shells:                                       256
                             - Primitive Cartesian functions:                192
                             - Cartesian basis functions:                    992
                             - Spherical basis functions:                    832

  Maximum angular momentum of- Orbital basis functions:                        3
                             - Local part of the GTH pseudopotential:          2
                             - Non-local part of the GTH pseudopotential:      3


 MODULE QUICKSTEP:  ATOMIC COORDINATES IN angstrom

  Atom  Kind  Element       X           Y           Z          Z(eff)       Mass

       1     1 Ni  28    0.000000    0.000000    0.000000     18.00      58.6934
       2     1 Ni  28    0.000000    1.752900    1.752900     18.00      58.6934
       3     1 Ni  28    1.752900    0.000000    1.752900     18.00      58.6934
       4     1 Ni  28    1.752900    1.752900    0.000000     18.00      58.6934
       5     1 Ni  28    3.505798    0.000000    0.000000     18.00      58.6934
       6     1 Ni  28    3.505798    1.752900    1.752900     18.00      58.6934
       7     1 Ni  28    5.258698    0.000000    1.752900     18.00      58.6934
       8     1 Ni  28    5.258698    1.752900    0.000000     18.00      58.6934
       9     1 Ni  28    0.000000    3.505798    0.000000     18.00      58.6934
      10     1 Ni  28    0.000000    5.258698    1.752900     18.00      58.6934
      11     1 Ni  28    1.752900    3.505798    1.752900     18.00      58.6934
      12     1 Ni  28    1.752900    5.258698    0.000000     18.00      58.6934
      13     1 Ni  28    3.505798    3.505798    0.000000     18.00      58.6934
      14     1 Ni  28    3.505798    5.258698    1.752900     18.00      58.6934
      15     1 Ni  28    5.258698    3.505798    1.752900     18.00      58.6934
      16     1 Ni  28    5.258698    5.258698    0.000000     18.00      58.6934
      17     1 Ni  28    0.000000    0.000000    3.505798     18.00      58.6934
      18     1 Ni  28    0.000000    1.752900    5.258698     18.00      58.6934
      19     1 Ni  28    1.752900    0.000000    5.258698     18.00      58.6934
      20     1 Ni  28    1.752900    1.752900    3.505798     18.00      58.6934
      21     1 Ni  28    3.505798    0.000000    3.505798     18.00      58.6934
      22     1 Ni  28    3.505798    1.752900    5.258698     18.00      58.6934
      23     1 Ni  28    5.258698    0.000000    5.258698     18.00      58.6934
      24     1 Ni  28    5.258698    1.752900    3.505798     18.00      58.6934
      25     1 Ni  28    0.000000    3.505798    3.505798     18.00      58.6934
      26     1 Ni  28    0.000000    5.258698    5.258698     18.00      58.6934
      27     1 Ni  28    1.752900    3.505798    5.258698     18.00      58.6934
      28     1 Ni  28    1.752900    5.258698    3.505798     18.00      58.6934
      29     1 Ni  28    3.505798    3.505798    3.505798     18.00      58.6934
      30     1 Ni  28    3.505798    5.258698    5.258698     18.00      58.6934
      31     1 Ni  28    5.258698    3.505798    5.258698     18.00      58.6934
      32     1 Ni  28    5.258698    5.258698    3.505798     18.00      58.6934




 SCF PARAMETERS         Density guess:                                   RESTART
                        --------------------------------------------------------
                        max_scf:                                             500
                        max_scf_history:                                       0
                        max_diis:                                             10
                        --------------------------------------------------------
                        eps_scf:                                        1.00E-04
                        eps_scf_history:                                0.00E+00
                        eps_diis:                                       1.00E-01
                        eps_eigval:                                     1.00E-05
                        --------------------------------------------------------
                        level_shift [a.u.]:                                 0.00
                        added MOs                                       528  560
                        --------------------------------------------------------
                        Mixing method:                            BROYDEN_MIXING
                                                charge density mixing in g-space
                        --------------------------------------------------------
                        Smear method:                                FERMI_DIRAC
                        Electronic temperature [K]:                        500.0
                        Electronic temperature [a.u.]:                  1.58E-03
                        Accuracy threshold:                             1.00E-10
                        --------------------------------------------------------
                        No outer SCF

 PW_GRID| Information for grid number                                          1
 PW_GRID| Grid distributed over                                    80 processors
 PW_GRID| Real space group dimensions                                    80    1
 PW_GRID| the grid is blocked:                                                NO
 PW_GRID| Cutoff [a.u.]                                                    300.0
 PW_GRID| spherical cutoff:                                                   NO
 PW_GRID|   Bounds   1            -54      53                Points:         108
 PW_GRID|   Bounds   2            -54      53                Points:         108
 PW_GRID|   Bounds   3           -150     149                Points:         300
 PW_GRID| Volume element (a.u.^3)  0.1896E-02     Volume (a.u.^3)      6635.2971
 PW_GRID| Grid span                                                    FULLSPACE
 PW_GRID|   Distribution                         Average         Max         Min
 PW_GRID|   G-Vectors                            43740.0       43740       43740
 PW_GRID|   G-Rays                                 405.0         405         405
 PW_GRID|   Real Space Points                    43740.0       64800       32400

 PW_GRID| Information for grid number                                          2
 PW_GRID| Number of the reference grid                                         1
 PW_GRID| Grid distributed over                                    80 processors
 PW_GRID| Real space group dimensions                                     8   10
 PW_GRID| the grid is blocked:                                                NO
 PW_GRID| Cutoff [a.u.]                                                    100.0
 PW_GRID| spherical cutoff:                                                   NO
 PW_GRID|   Bounds   1            -30      29                Points:          60
 PW_GRID|   Bounds   2            -30      29                Points:          60
 PW_GRID|   Bounds   3            -90      89                Points:         180
 PW_GRID| Volume element (a.u.^3)  0.1024E-01     Volume (a.u.^3)      6635.2971
 PW_GRID| Grid span                                                    FULLSPACE
 PW_GRID|   Distribution                         Average         Max         Min
 PW_GRID|   G-Vectors                             8100.0        8340        7740
 PW_GRID|   G-Rays                                 135.0         139         129
 PW_GRID|   Real Space Points                     8100.0        8640        7560

 PW_GRID| Information for grid number                                          3
 PW_GRID| Number of the reference grid                                         1
 PW_GRID| Grid distributed over                                    80 processors
 PW_GRID| Real space group dimensions                                     8   10
 PW_GRID| the grid is blocked:                                                NO
 PW_GRID| Cutoff [a.u.]                                                     33.3
 PW_GRID| spherical cutoff:                                                   NO
 PW_GRID|   Bounds   1            -18      17                Points:          36
 PW_GRID|   Bounds   2            -18      17                Points:          36
 PW_GRID|   Bounds   3            -50      49                Points:         100
 PW_GRID| Volume element (a.u.^3)  0.5120E-01     Volume (a.u.^3)      6635.2971
 PW_GRID| Grid span                                                    FULLSPACE
 PW_GRID|   Distribution                         Average         Max         Min
 PW_GRID|   G-Vectors                             1620.0        1836        1296
 PW_GRID|   G-Rays                                  45.0          51          36
 PW_GRID|   Real Space Points                     1620.0        2000        1200

 PW_GRID| Information for grid number                                          4
 PW_GRID| Number of the reference grid                                         1
 PW_GRID| Grid distributed over                                    80 processors
 PW_GRID| Real space group dimensions                                     8   10
 PW_GRID| the grid is blocked:                                                NO
 PW_GRID| Cutoff [a.u.]                                                     11.1
 PW_GRID| spherical cutoff:                                                   NO
 PW_GRID|   Bounds   1            -10       9                Points:          20
 PW_GRID|   Bounds   2            -10       9                Points:          20
 PW_GRID|   Bounds   3            -30      29                Points:          60
 PW_GRID| Volume element (a.u.^3)  0.2765         Volume (a.u.^3)      6635.2971
 PW_GRID| Grid span                                                    FULLSPACE
 PW_GRID|   Distribution                         Average         Max         Min
 PW_GRID|   G-Vectors                              300.0         380         140
 PW_GRID|   G-Rays                                  15.0          19           7
 PW_GRID|   Real Space Points                      300.0         360         240

 PW_GRID| Information for grid number                                          5
 PW_GRID| Number of the reference grid                                         1
 PW_GRID| Grid distributed over                                    80 processors
 PW_GRID| Real space group dimensions                                     8   10
 PW_GRID| the grid is blocked:                                                NO
 PW_GRID| Cutoff [a.u.]                                                      3.7
 PW_GRID| spherical cutoff:                                                   NO
 PW_GRID|   Bounds   1             -6       5                Points:          12
 PW_GRID|   Bounds   2             -6       5                Points:          12
 PW_GRID|   Bounds   3            -18      17                Points:          36
 PW_GRID| Volume element (a.u.^3)   1.280         Volume (a.u.^3)      6635.2971
 PW_GRID| Grid span                                                    FULLSPACE
 PW_GRID|   Distribution                         Average         Max         Min
 PW_GRID|   G-Vectors                               64.8         108          36
 PW_GRID|   G-Rays                                   5.4           9           3
 PW_GRID|   Real Space Points                       64.8         144          36

 POISSON| Solver                                                        PERIODIC
 POISSON| Periodicity                                                        XYZ

 RS_GRID| Information for grid number                                          1
 RS_GRID|   Bounds   1            -54      53                Points:         108
 RS_GRID|   Bounds   2            -54      53                Points:         108
 RS_GRID|   Bounds   3           -150     149                Points:         300
 RS_GRID| Real space distribution over                                  5 groups
 RS_GRID| Real space distribution along direction                              2
 RS_GRID| Border size                                                         28
 RS_GRID| Real space distribution over                                 16 groups
 RS_GRID| Real space distribution along direction                              3
 RS_GRID| Border size                                                         28
 RS_GRID|   Distribution                         Average         Max         Min
 RS_GRID|   Planes                                  77.6          78          77
 RS_GRID|   Distribution                         Average         Max         Min
 RS_GRID|   Planes                                  74.8          75          74

 RS_GRID| Information for grid number                                          2
 RS_GRID|   Bounds   1            -30      29                Points:          60
 RS_GRID|   Bounds   2            -30      29                Points:          60
 RS_GRID|   Bounds   3            -90      89                Points:         180
 RS_GRID| Real space distribution over                                  5 groups
 RS_GRID| Real space distribution along direction                              2
 RS_GRID| Border size                                                         28
 RS_GRID| Real space distribution over                                 16 groups
 RS_GRID| Real space distribution along direction                              3
 RS_GRID| Border size                                                         28
 RS_GRID|   Distribution                         Average         Max         Min
 RS_GRID|   Planes                                  68.0          68          68
 RS_GRID|   Distribution                         Average         Max         Min
 RS_GRID|   Planes                                  67.2          68          67

 RS_GRID| Information for grid number                                          3
 RS_GRID|   Bounds   1            -18      17                Points:          36
 RS_GRID|   Bounds   2            -18      17                Points:          36
 RS_GRID|   Bounds   3            -50      49                Points:         100
 RS_GRID| Real space fully replicated
 RS_GRID| Group size                                                           1

 RS_GRID| Information for grid number                                          4
 RS_GRID|   Bounds   1            -10       9                Points:          20
 RS_GRID|   Bounds   2            -10       9                Points:          20
 RS_GRID|   Bounds   3            -30      29                Points:          60
 RS_GRID| Real space fully replicated
 RS_GRID| Group size                                                           1

 RS_GRID| Information for grid number                                          5
 RS_GRID|   Bounds   1             -6       5                Points:          12
 RS_GRID|   Bounds   2             -6       5                Points:          12
 RS_GRID|   Bounds   3            -18      17                Points:          36
 RS_GRID| Real space fully replicated
 RS_GRID| Group size                                                           1

 Spin 1

 Number of electrons:                                                        304
 Number of occupied orbitals:                                                304
 Number of molecular orbitals:                                               832

 Spin 2

 Number of electrons:                                                        272
 Number of occupied orbitals:                                                272
 Number of molecular orbitals:                                               832

 Number of orbital functions:                                                832
 Number of independent orbital functions:                                    832

 Extrapolation method: initial_guess


 SCF WAVEFUNCTION OPTIMIZATION

  Step     Update method      Time    Convergence         Total energy    Change
  ------------------------------------------------------------------------------
     1 NoMix/Diag. 0.50E+00    0.5     0.01533754     -5417.6143143218 -5.42E+03
     2 Broy./Diag. 0.50E+00    0.6     0.19385344     -5417.6147921545 -4.78E-04
     3 Broy./Diag. 0.50E+00    0.7     0.20904259     -5417.8325037636 -2.18E-01
     4 Broy./Diag. 0.50E+00    0.7     0.15470144     -5417.6118775379  2.21E-01
     5 Broy./Diag. 0.50E+00    0.7     0.15749024     -5417.8626889290 -2.51E-01
     6 Broy./Diag. 0.50E+00    0.7     0.10120832     -5417.3946146535  4.68E-01
     7 Broy./Diag. 0.50E+00    0.7     0.10872868     -5417.4744383062 -7.98E-02
     8 Broy./Diag. 0.50E+00    0.7     0.09098737     -5417.9144067955 -4.40E-01
     9 Broy./Diag. 0.50E+00    0.7     0.04431925     -5417.7557098610  1.59E-01
    10 Broy./Diag. 0.50E+00    0.7     0.05305589     -5417.4771017079  2.79E-01
    11 Broy./Diag. 0.50E+00    0.7     0.03780053     -5417.3390505814  1.38E-01
    12 Broy./Diag. 0.50E+00    0.7     0.02847624     -5417.5761311296 -2.37E-01
    13 Broy./Diag. 0.50E+00    0.7     0.01948906     -5418.0245635781 -4.48E-01
    14 Broy./Diag. 0.50E+00    0.7     0.02754668     -5417.8380906790  1.86E-01
    15 Broy./Diag. 0.50E+00    0.7     0.02375391     -5417.4028400160  4.35E-01
    16 Broy./Diag. 0.50E+00    0.7     0.02026791     -5417.2243505258  1.78E-01
    17 Broy./Diag. 0.50E+00    0.7     0.02001716     -5417.4566198353 -2.32E-01
    18 Broy./Diag. 0.50E+00    0.7     0.02039433     -5417.9995057780 -5.43E-01
    19 Broy./Diag. 0.50E+00    0.7     0.01257016     -5417.9373507347  6.22E-02
    20 Broy./Diag. 0.50E+00    0.7     0.01200702     -5417.5844129318  3.53E-01
    21 Broy./Diag. 0.50E+00    0.7     0.00956886     -5417.3918824385  1.93E-01
    22 Broy./Diag. 0.50E+00    0.7     0.00632225     -5417.4912244215 -9.93E-02
    23 Broy./Diag. 0.50E+00    0.7     0.00529279     -5417.7343539286 -2.43E-01
    24 Broy./Diag. 0.50E+00    0.7     0.00565486     -5417.7077032339  2.67E-02
    25 Broy./Diag. 0.50E+00    0.7     0.00398652     -5417.5544218287  1.53E-01
    26 Broy./Diag. 0.50E+00    0.7     0.00376830     -5417.5811100402 -2.67E-02
    27 Broy./Diag. 0.50E+00    0.7     0.00313759     -5417.6412694852 -6.02E-02
    28 Broy./Diag. 0.50E+00    0.7     0.00391425     -5417.6722612589 -3.10E-02
    29 Broy./Diag. 0.50E+00    0.7     0.00256396     -5417.6352960059  3.70E-02
    30 Broy./Diag. 0.50E+00    0.7     0.00174247     -5417.5797136106  5.56E-02
    31 Broy./Diag. 0.50E+00    0.7     0.00191407     -5417.5992919337 -1.96E-02
    32 Broy./Diag. 0.50E+00    0.7     0.00140434     -5417.6326679566 -3.34E-02
    33 Broy./Diag. 0.50E+00    0.7     0.00113387     -5417.6542612215 -2.16E-02
    34 Broy./Diag. 0.50E+00    0.7     0.00090000     -5417.6423564037  1.19E-02
    35 Broy./Diag. 0.50E+00    0.7     0.00091122     -5417.6055305411  3.68E-02
    36 Broy./Diag. 0.50E+00    0.7     0.00097865     -5417.6029235392  2.61E-03
    37 Broy./Diag. 0.50E+00    0.7     0.00106324     -5417.6305871922 -2.77E-02
    38 Broy./Diag. 0.50E+00    0.7     0.00085899     -5417.6383858794 -7.80E-03
    39 Broy./Diag. 0.50E+00    0.7     0.00082819     -5417.6342162616  4.17E-03
    40 Broy./Diag. 0.50E+00    0.7     0.00079072     -5417.6195761612  1.46E-02
    41 Broy./Diag. 0.50E+00    0.7     0.00048113     -5417.6114377220  8.14E-03
    42 Broy./Diag. 0.50E+00    0.7     0.00063526     -5417.6225360874 -1.11E-02
    43 Broy./Diag. 0.50E+00    0.7     0.00052689     -5417.6332092598 -1.07E-02
    44 Broy./Diag. 0.50E+00    0.7     0.00053611     -5417.6335576983 -3.48E-04
    45 Broy./Diag. 0.50E+00    0.7     0.00043211     -5417.6245243381  9.03E-03
    46 Broy./Diag. 0.50E+00    0.8     0.00035914     -5417.6143450957  1.02E-02
    47 Broy./Diag. 0.50E+00    0.8     0.00028180     -5417.6192540196 -4.91E-03
    48 Broy./Diag. 0.50E+00    0.7     0.00030995     -5417.6324541739 -1.32E-02
    49 Broy./Diag. 0.50E+00    0.7     0.00043416     -5417.6303729742  2.08E-03
    50 Broy./Diag. 0.50E+00    0.8     0.00029460     -5417.6248656156  5.51E-03
    51 Broy./Diag. 0.50E+00    0.7     0.00036608     -5417.6215110426  3.35E-03
    52 Broy./Diag. 0.50E+00    0.7     0.00031001     -5417.6181717694  3.34E-03
    53 Broy./Diag. 0.50E+00    0.7     0.00017574     -5417.6223734514 -4.20E-03
    54 Broy./Diag. 0.50E+00    0.7     0.00023101     -5417.6277725229 -5.40E-03
    55 Broy./Diag. 0.50E+00    0.7     0.00023030     -5417.6276222605  1.50E-04
    56 Broy./Diag. 0.50E+00    0.7     0.00019812     -5417.6236293958  3.99E-03
    57 Broy./Diag. 0.50E+00    0.7     0.00016246     -5417.6200788678  3.55E-03
    58 Broy./Diag. 0.50E+00    0.7     0.00017083     -5417.6241006025 -4.02E-03
    59 Broy./Diag. 0.50E+00    0.7     0.00035017     -5417.6273785429 -3.28E-03
    60 Broy./Diag. 0.50E+00    0.7     0.00037352     -5417.6248132662  2.57E-03
    61 Broy./Diag. 0.50E+00    0.7     0.00014663     -5417.6244609919  3.52E-04
    62 Broy./Diag. 0.50E+00    0.7     0.00031196     -5417.6252179816 -7.57E-04
    63 Broy./Diag. 0.50E+00    0.7     0.00020900     -5417.6244517069  7.66E-04
    64 Broy./Diag. 0.50E+00    0.7     0.00033601     -5417.6229780248  1.47E-03
    65 Broy./Diag. 0.50E+00    0.7     0.00047398     -5417.6218527715  1.13E-03
    66 Broy./Diag. 0.50E+00    0.7     0.00049635     -5417.6240572745 -2.20E-03
    67 Broy./Diag. 0.50E+00    0.7     0.00028413     -5417.6254378422 -1.38E-03
    68 Broy./Diag. 0.50E+00    0.7     0.00042501     -5417.6264008512 -9.63E-04
    69 Broy./Diag. 0.50E+00    0.7     0.00047445     -5417.6256258212  7.75E-04
    70 Broy./Diag. 0.50E+00    0.7     0.00069163     -5417.6224998337  3.13E-03
    71 Broy./Diag. 0.50E+00    0.7     0.00058047     -5417.6213798809  1.12E-03
    72 Broy./Diag. 0.50E+00    0.7     0.00032556     -5417.6229377516 -1.56E-03
    73 Broy./Diag. 0.50E+00    0.7     0.00034166     -5417.6240454688 -1.11E-03
    74 Broy./Diag. 0.50E+00    0.7     0.00037104     -5417.6244938410 -4.48E-04
    75 Broy./Diag. 0.50E+00    0.7     0.00023697     -5417.6253376704 -8.44E-04
    76 Broy./Diag. 0.50E+00    0.7     0.00034110     -5417.6218036345  3.53E-03
    77 Broy./Diag. 0.50E+00    0.7     0.00049018     -5417.6234989845 -1.70E-03
    78 Broy./Diag. 0.50E+00    0.7     0.00053860     -5417.6251488558 -1.65E-03
    79 Broy./Diag. 0.50E+00    0.7     0.00121205     -5417.6285345333 -3.39E-03
    80 Broy./Diag. 0.50E+00    0.7     0.00159345     -5417.6311947910 -2.66E-03
    81 Broy./Diag. 0.50E+00    0.7     0.00269473     -5417.6201529566  1.10E-02
    82 Broy./Diag. 0.50E+00    0.7     0.00137508     -5417.6188251888  1.33E-03
    83 Broy./Diag. 0.50E+00    0.7     0.00112429     -5417.6263110757 -7.49E-03
    84 Broy./Diag. 0.50E+00    0.7     0.00156222     -5417.6265457273 -2.35E-04
    85 Broy./Diag. 0.50E+00    0.7     0.00110516     -5417.6239672099  2.58E-03
    86 Broy./Diag. 0.50E+00    0.7     0.00098135     -5417.6210932077  2.87E-03
    87 Broy./Diag. 0.50E+00    0.7     0.00108528     -5417.6163574791  4.74E-03
    88 Broy./Diag. 0.50E+00    0.7     0.00146815     -5417.6187495592 -2.39E-03
    89 Broy./Diag. 0.50E+00    0.7     0.00121529     -5417.6223428965 -3.59E-03
    90 Broy./Diag. 0.50E+00    0.7     0.00113993     -5417.6294964760 -7.15E-03
    91 Broy./Diag. 0.50E+00    0.7     0.00099090     -5417.6285789394  9.18E-04
    92 Broy./Diag. 0.50E+00    0.7     0.00068526     -5417.6233273353  5.25E-03
    93 Broy./Diag. 0.50E+00    0.7     0.00063059     -5417.6217132596  1.61E-03
    94 Broy./Diag. 0.50E+00    0.7     0.00062380     -5417.6225263945 -8.13E-04
    95 Broy./Diag. 0.50E+00    0.7     0.00054303     -5417.6246248476 -2.10E-03
    96 Broy./Diag. 0.50E+00    0.7     0.00046471     -5417.6253548068 -7.30E-04
    97 Broy./Diag. 0.50E+00    0.7     0.00047173     -5417.6262196291 -8.65E-04
    98 Broy./Diag. 0.50E+00    0.7     0.00067253     -5417.6252634337  9.56E-04
    99 Broy./Diag. 0.50E+00    0.7     0.00034388     -5417.6243906247  8.73E-04
   100 Broy./Diag. 0.50E+00    0.7     0.00050524     -5417.6226485964  1.74E-03
   101 Broy./Diag. 0.50E+00    0.7     0.00052997     -5417.6230177845 -3.69E-04
   102 Broy./Diag. 0.50E+00    0.7     0.00038485     -5417.6235017487 -4.84E-04
   103 Broy./Diag. 0.50E+00    0.7     0.00044486     -5417.6244809620 -9.79E-04
   104 Broy./Diag. 0.50E+00    0.8     0.00061443     -5417.6242762405  2.05E-04
   105 Broy./Diag. 0.50E+00    0.8     0.00140035     -5417.6237637731  5.12E-04
   106 Broy./Diag. 0.50E+00    0.7     0.00166898     -5417.6244606673 -6.97E-04
   107 Broy./Diag. 0.50E+00    0.7     0.00156163     -5417.6249521348 -4.91E-04
   108 Broy./Diag. 0.50E+00    0.7     0.00161300     -5417.6243143546  6.38E-04
   109 Broy./Diag. 0.50E+00    0.8     0.00129838     -5417.6239070288  4.07E-04
   110 Broy./Diag. 0.50E+00    0.7     0.00155601     -5417.6240546702 -1.48E-04
   111 Broy./Diag. 0.50E+00    0.7     0.00155871     -5417.6248789094 -8.24E-04
   112 Broy./Diag. 0.50E+00    0.7     0.00105316     -5417.6249741575 -9.52E-05
   113 Broy./Diag. 0.50E+00    0.7     0.00081597     -5417.6244432433  5.31E-04
   114 Broy./Diag. 0.50E+00    0.7     0.00080454     -5417.6237537864  6.89E-04
   115 Broy./Diag. 0.50E+00    0.7     0.00083195     -5417.6237514469  2.34E-06
   116 Broy./Diag. 0.50E+00    0.7     0.00068800     -5417.6241494491 -3.98E-04
   117 Broy./Diag. 0.50E+00    0.7     0.00063331     -5417.6250655375 -9.16E-04
   118 Broy./Diag. 0.50E+00    0.7     0.00072450     -5417.6250246574  4.09E-05
   119 Broy./Diag. 0.50E+00    0.7     0.00052776     -5417.6245922690  4.32E-04
   120 Broy./Diag. 0.50E+00    0.7     0.00043879     -5417.6235338235  1.06E-03
   121 Broy./Diag. 0.50E+00    0.7     0.00045108     -5417.6235345478 -7.24E-07
   122 Broy./Diag. 0.50E+00    0.7     0.00038152     -5417.6243275275 -7.93E-04
   123 Broy./Diag. 0.50E+00    0.7     0.00027377     -5417.6254948151 -1.17E-03
   124 Broy./Diag. 0.50E+00    0.7     0.00020822     -5417.6250975419  3.97E-04
   125 Broy./Diag. 0.50E+00    0.7     0.00029842     -5417.6240411938  1.06E-03
   126 Broy./Diag. 0.50E+00    0.7     0.00029640     -5417.6239321302  1.09E-04
   127 Broy./Diag. 0.50E+00    0.7     0.00021466     -5417.6240726902 -1.41E-04
   128 Broy./Diag. 0.50E+00    0.7     0.00031885     -5417.6246860743 -6.13E-04
   129 Broy./Diag. 0.50E+00    0.7     0.00030140     -5417.6258970364 -1.21E-03
   130 Broy./Diag. 0.50E+00    0.7     0.00027285     -5417.6252392734  6.58E-04
   131 Broy./Diag. 0.50E+00    0.7     0.00026768     -5417.6247411588  4.98E-04
   132 Broy./Diag. 0.50E+00    0.7     0.00016345     -5417.6248301803 -8.90E-05
   133 Broy./Diag. 0.50E+00    0.7     0.00030248     -5417.6244116996  4.18E-04
   134 Broy./Diag. 0.50E+00    0.7     0.00022055     -5417.6240167827  3.95E-04
   135 Broy./Diag. 0.50E+00    0.7     0.00032442     -5417.6247222001 -7.05E-04
   136 Broy./Diag. 0.50E+00    0.7     0.00017411     -5417.6250779463 -3.56E-04
   137 Broy./Diag. 0.50E+00    0.7     0.00062501     -5417.6252049888 -1.27E-04
   138 Broy./Diag. 0.50E+00    0.7     0.00018960     -5417.6241820612  1.02E-03
   139 Broy./Diag. 0.50E+00    0.7     0.00014060     -5417.6227709356  1.41E-03
   140 Broy./Diag. 0.50E+00    0.7     0.00016069     -5417.6231358177 -3.65E-04
   141 Broy./Diag. 0.50E+00    0.7     0.00024939     -5417.6248098966 -1.67E-03
   142 Broy./Diag. 0.50E+00    0.7     0.00071787     -5417.6248465000 -3.66E-05
   143 Broy./Diag. 0.50E+00    0.7     0.00055907     -5417.6256290118 -7.83E-04
   144 Broy./Diag. 0.50E+00    0.7     0.00030490     -5417.6240610507  1.57E-03
   145 Broy./Diag. 0.50E+00    0.7     0.00026490     -5417.6241597422 -9.87E-05
   146 Broy./Diag. 0.50E+00    0.7     0.00038882     -5417.6242386857 -7.89E-05
   147 Broy./Diag. 0.50E+00    0.7     0.00022630     -5417.6245062387 -2.68E-04
   148 Broy./Diag. 0.50E+00    0.7     0.00033483     -5417.6248058499 -3.00E-04
   149 Broy./Diag. 0.50E+00    0.7     0.00064968     -5417.6243705755  4.35E-04
   150 Broy./Diag. 0.50E+00    0.7     0.00048969     -5417.6224780341  1.89E-03
   151 Broy./Diag. 0.50E+00    0.7     0.00070671     -5417.6230927704 -6.15E-04
   152 Broy./Diag. 0.50E+00    0.7     0.00132041     -5417.6240001686 -9.07E-04
   153 Broy./Diag. 0.50E+00    0.7     0.00208359     -5417.6255692657 -1.57E-03
   154 Broy./Diag. 0.50E+00    0.7     0.00155998     -5417.6253235409  2.46E-04
   155 Broy./Diag. 0.50E+00    0.7     0.00173651     -5417.6257002319 -3.77E-04
   156 Broy./Diag. 0.50E+00    0.7     0.00159447     -5417.6233478887  2.35E-03
   157 Broy./Diag. 0.50E+00    0.7     0.00083855     -5417.6218489134  1.50E-03
   158 Broy./Diag. 0.50E+00    0.7     0.00101234     -5417.6241150351 -2.27E-03
   159 Broy./Diag. 0.50E+00    0.7     0.00100126     -5417.6274745190 -3.36E-03
   160 Broy./Diag. 0.50E+00    0.7     0.00079422     -5417.6269718222  5.03E-04
   161 Broy./Diag. 0.50E+00    0.7     0.00069596     -5417.6254822780  1.49E-03
   162 Broy./Diag. 0.50E+00    0.7     0.00083375     -5417.6214254932  4.06E-03
   163 Broy./Diag. 0.50E+00    0.7     0.00074232     -5417.6212168971  2.09E-04
   164 Broy./Diag. 0.50E+00    0.7     0.00092881     -5417.6227323759 -1.52E-03
   165 Broy./Diag. 0.50E+00    0.7     0.00064491     -5417.6279121507 -5.18E-03
   166 Broy./Diag. 0.50E+00    0.7     0.00055637     -5417.6286908409 -7.79E-04
   167 Broy./Diag. 0.50E+00    0.7     0.00056057     -5417.6235065004  5.18E-03
   168 Broy./Diag. 0.50E+00    0.7     0.00040557     -5417.6198316000  3.67E-03
   169 Broy./Diag. 0.50E+00    0.7     0.00033232     -5417.6209340826 -1.10E-03
   170 Broy./Diag. 0.50E+00    0.7     0.00037874     -5417.6291459736 -8.21E-03
   171 Broy./Diag. 0.50E+00    0.7     0.00048283     -5417.6291582717 -1.23E-05
   172 Broy./Diag. 0.50E+00    0.7     0.00056618     -5417.6255958521  3.56E-03
   173 Broy./Diag. 0.50E+00    0.7     0.00033234     -5417.6254146886  1.81E-04
   174 Broy./Diag. 0.50E+00    0.7     0.00039413     -5417.6222795789  3.14E-03
   175 Broy./Diag. 0.50E+00    0.7     0.00025238     -5417.6191021584  3.18E-03
   176 Broy./Diag. 0.50E+00    0.7     0.00018300     -5417.6240776967 -4.98E-03
   177 Broy./Diag. 0.50E+00    0.7     0.00027389     -5417.6290033387 -4.93E-03
   178 Broy./Diag. 0.50E+00    0.7     0.00019073     -5417.6280644712  9.39E-04
   179 Broy./Diag. 0.50E+00    0.7     0.00024842     -5417.6225226670  5.54E-03
   180 Broy./Diag. 0.50E+00    0.7     0.00016638     -5417.6195753610  2.95E-03
   181 Broy./Diag. 0.50E+00    0.7     0.00023566     -5417.6243995658 -4.82E-03
   182 Broy./Diag. 0.50E+00    0.7     0.00037269     -5417.6266544815 -2.25E-03
   183 Broy./Diag. 0.50E+00    0.7     0.00012247     -5417.6275636873 -9.09E-04
   184 Broy./Diag. 0.50E+00    0.7     0.00021593     -5417.6246740514  2.89E-03
   185 Broy./Diag. 0.50E+00    0.7     0.00018850     -5417.6241455849  5.28E-04
   186 Broy./Diag. 0.50E+00    0.7     0.00025913     -5417.6245594017 -4.14E-04
   187 Broy./Diag. 0.50E+00    0.7     0.00046046     -5417.6243961903  1.63E-04
   188 Broy./Diag. 0.50E+00    0.7     0.00099858     -5417.6250651158 -6.69E-04
   189 Broy./Diag. 0.50E+00    0.7     0.00034208     -5417.6235043571  1.56E-03
   190 Broy./Diag. 0.50E+00    0.7     0.00031811     -5417.6232290408  2.75E-04
   191 Broy./Diag. 0.50E+00    0.7     0.00030479     -5417.6227156009  5.13E-04
   192 Broy./Diag. 0.50E+00    0.7     0.00089830     -5417.6229696504 -2.54E-04
   193 Broy./Diag. 0.50E+00    0.7     0.00087079     -5417.6215052518  1.46E-03
   194 Broy./Diag. 0.50E+00    0.7     0.00058797     -5417.6217152408 -2.10E-04
   195 Broy./Diag. 0.50E+00    0.7     0.00070061     -5417.6258628084 -4.15E-03
   196 Broy./Diag. 0.50E+00    0.7     0.00138174     -5417.6241962464  1.67E-03
   197 Broy./Diag. 0.50E+00    0.7     0.00102174     -5417.6303001014 -6.10E-03
   198 Broy./Diag. 0.50E+00    0.7     0.00105878     -5417.6262714131  4.03E-03
   199 Broy./Diag. 0.50E+00    0.7     0.00097836     -5417.6196118445  6.66E-03
   200 Broy./Diag. 0.50E+00    0.7     0.00111946     -5417.6186364719  9.75E-04
   201 Broy./Diag. 0.50E+00    0.7     0.00165820     -5417.6212684705 -2.63E-03
   202 Broy./Diag. 0.50E+00    0.7     0.00223524     -5417.6255280030 -4.26E-03
   203 Broy./Diag. 0.50E+00    0.7     0.00117210     -5417.6292505561 -3.72E-03
   204 Broy./Diag. 0.50E+00    0.7     0.00128969     -5417.6307964472 -1.55E-03
   205 Broy./Diag. 0.50E+00    0.7     0.00100146     -5417.6244641415  6.33E-03
   206 Broy./Diag. 0.50E+00    0.7     0.00086091     -5417.6164086846  8.06E-03
   207 Broy./Diag. 0.50E+00    0.7     0.00070809     -5417.6184139426 -2.01E-03
   208 Broy./Diag. 0.50E+00    0.7     0.00078862     -5417.6279347918 -9.52E-03
   209 Broy./Diag. 0.50E+00    0.7     0.00049073     -5417.6329985554 -5.06E-03
   210 Broy./Diag. 0.50E+00    0.7     0.00047554     -5417.6280402093  4.96E-03
   211 Broy./Diag. 0.50E+00    0.7     0.00080758     -5417.6174926607  1.05E-02
   212 Broy./Diag. 0.50E+00    0.7     0.00101436     -5417.6175680748 -7.54E-05
   213 Broy./Diag. 0.50E+00    0.7     0.00048068     -5417.6196957597 -2.13E-03
   214 Broy./Diag. 0.50E+00    0.7     0.00035253     -5417.6321769796 -1.25E-02
   215 Broy./Diag. 0.50E+00    0.7     0.00030221     -5417.6317224281  4.55E-04
   216 Broy./Diag. 0.50E+00    0.7     0.00022495     -5417.6240353472  7.69E-03
   217 Broy./Diag. 0.50E+00    0.7     0.00017439     -5417.6201264031  3.91E-03
   218 Broy./Diag. 0.50E+00    0.7     0.00023477     -5417.6220567706 -1.93E-03
   219 Broy./Diag. 0.50E+00    0.7     0.00016688     -5417.6255549568 -3.50E-03
   220 Broy./Diag. 0.50E+00    0.7     0.00028599     -5417.6267813657 -1.23E-03
   221 Broy./Diag. 0.50E+00    0.8     0.00058118     -5417.6270757685 -2.94E-04
   222 Broy./Diag. 0.50E+00    0.8     0.00067035     -5417.6286579296 -1.58E-03
   223 Broy./Diag. 0.50E+00    0.7     0.00029968     -5417.6254011955  3.26E-03
   224 Broy./Diag. 0.50E+00    0.7     0.00028897     -5417.6228730652  2.53E-03
   225 Broy./Diag. 0.50E+00    0.7     0.00047527     -5417.6215396990  1.33E-03
   226 Broy./Diag. 0.50E+00    0.7     0.00087967     -5417.6245466434 -3.01E-03
   227 Broy./Diag. 0.50E+00    0.7     0.00157693     -5417.6260754945 -1.53E-03
   228 Broy./Diag. 0.50E+00    0.7     0.00112901     -5417.6257503681  3.25E-04
   229 Broy./Diag. 0.50E+00    0.7     0.00070242     -5417.6255847517  1.66E-04
   230 Broy./Diag. 0.50E+00    0.7     0.00094474     -5417.6249234585  6.61E-04
   231 Broy./Diag. 0.50E+00    0.7     0.00078908     -5417.6262879442 -1.36E-03
   232 Broy./Diag. 0.50E+00    0.7     0.00138803     -5417.6246616281  1.63E-03
   233 Broy./Diag. 0.50E+00    0.7     0.00146907     -5417.6274472205 -2.79E-03
   234 Broy./Diag. 0.50E+00    0.7     0.00117871     -5417.6235306348  3.92E-03
   235 Broy./Diag. 0.50E+00    0.7     0.00105452     -5417.6225287427  1.00E-03
   236 Broy./Diag. 0.50E+00    0.7     0.00204060     -5417.6244431298 -1.91E-03
   237 Broy./Diag. 0.50E+00    0.7     0.00191956     -5417.6240245853  4.19E-04
   238 Broy./Diag. 0.50E+00    0.7     0.00136102     -5417.6259358167 -1.91E-03
   239 Broy./Diag. 0.50E+00    0.7     0.00120093     -5417.6259359998 -1.83E-07
   240 Broy./Diag. 0.50E+00    0.7     0.00120437     -5417.6230103980  2.93E-03
   241 Broy./Diag. 0.50E+00    0.7     0.00105254     -5417.6223985707  6.12E-04
   242 Broy./Diag. 0.50E+00    0.7     0.00104098     -5417.6235949242 -1.20E-03
   243 Broy./Diag. 0.50E+00    0.7     0.00085239     -5417.6271649041 -3.57E-03
   244 Broy./Diag. 0.50E+00    0.7     0.00073302     -5417.6263664270  7.98E-04
   245 Broy./Diag. 0.50E+00    0.7     0.00077259     -5417.6245362855  1.83E-03
   246 Broy./Diag. 0.50E+00    0.7     0.00066689     -5417.6231944902  1.34E-03
   247 Broy./Diag. 0.50E+00    0.7     0.00058607     -5417.6219473412  1.25E-03
   248 Broy./Diag. 0.50E+00    0.7     0.00061264     -5417.6234125625 -1.47E-03
   249 Broy./Diag. 0.50E+00    0.7     0.00060795     -5417.6259557679 -2.54E-03
   250 Broy./Diag. 0.50E+00    0.7     0.00040869     -5417.6266543593 -6.99E-04
   251 Broy./Diag. 0.50E+00    0.7     0.00054574     -5417.6237835886  2.87E-03
   252 Broy./Diag. 0.50E+00    0.7     0.00027526     -5417.6218784881  1.91E-03
   253 Broy./Diag. 0.50E+00    0.7     0.00038464     -5417.6226961188 -8.18E-04
   254 Broy./Diag. 0.50E+00    0.7     0.00041942     -5417.6264634440 -3.77E-03
   255 Broy./Diag. 0.50E+00    0.7     0.00034379     -5417.6271986210 -7.35E-04
   256 Broy./Diag. 0.50E+00    0.7     0.00025563     -5417.6263115783  8.87E-04
   257 Broy./Diag. 0.50E+00    0.7     0.00025996     -5417.6228895847  3.42E-03
   258 Broy./Diag. 0.50E+00    0.7     0.00019556     -5417.6218549980  1.03E-03
   259 Broy./Diag. 0.50E+00    0.7     0.00013776     -5417.6241330892 -2.28E-03
   260 Broy./Diag. 0.50E+00    0.7     0.00016027     -5417.6282814053 -4.15E-03
   261 Broy./Diag. 0.50E+00    0.7     0.00016272     -5417.6258298326  2.45E-03
   262 Broy./Diag. 0.50E+00    0.7     0.00012863     -5417.6246396549  1.19E-03
   263 Broy./Diag. 0.50E+00    0.7     0.00004021     -5417.6247553544 -1.16E-04

  *** SCF run converged in   263 steps ***


  Electronic density on regular grids:       -575.9999999997        0.0000000003
  Core density on regular grids:              575.9999999999       -0.0000000001
  Total charge density on r-space grids:        0.0000000001
  Total charge density g-space grids:           0.0000000001

  Overlap energy of the core charge distribution:               0.00000000000000
  Self energy of the core charge distribution:              -8356.45371746162709
  Core Hamiltonian energy:                                   2339.47842761159336
  Hartree energy:                                            1141.33337729530490
  Exchange-correlation energy:                               -541.66553595547634
  Dispersion energy:                                           -0.30723620210815
  Electronic entropic energy:                                  -0.01007091937972
  Fermi energy:                                                 0.06210906490126

  Total energy:                                             -5417.62475535437989

  Integrated absolute spin density  :                              26.0279346993
  WARNING: S**2 computation does not yet treat fractional occupied orbitals

 The sum of alpha and beta density is written in cube file format to the file:

 Bulk_Opt-ELECTRON_DENSITY-1_0.cube

 The spin density is written in cube file format to the file:

 Bulk_Opt-SPIN_DENSITY-1_0.cube

 !-----------------------------------------------------------------------------!
                     Mulliken Population Analysis

 #  Atom  Element  Kind  Atomic population (alpha,beta) Net charge  Spin moment
       1     Ni       1         9.357136     8.607452     0.035412     0.749684
       2     Ni       1         9.356229     8.679656    -0.035885     0.676573
       3     Ni       1         9.356074     8.679245    -0.035319     0.676829
       4     Ni       1         9.356995     8.607333     0.035672     0.749663
       5     Ni       1         9.357018     8.607502     0.035480     0.749516
       6     Ni       1         9.356175     8.679740    -0.035915     0.676435
       7     Ni       1         9.356213     8.679329    -0.035542     0.676884
       8     Ni       1         9.357074     8.607330     0.035596     0.749745
       9     Ni       1         9.357099     8.607635     0.035265     0.749464
      10     Ni       1         9.356211     8.679644    -0.035855     0.676566
      11     Ni       1         9.356094     8.679162    -0.035255     0.676932
      12     Ni       1         9.357017     8.607235     0.035748     0.749782
      13     Ni       1         9.357059     8.607391     0.035550     0.749667
      14     Ni       1         9.356202     8.679505    -0.035706     0.676697
      15     Ni       1         9.356191     8.679396    -0.035586     0.676795
      16     Ni       1         9.357321     8.607613     0.035066     0.749708
      17     Ni       1         9.356270     8.679279    -0.035549     0.676991
      18     Ni       1         9.357364     8.606800     0.035836     0.750564
      19     Ni       1         9.357218     8.607587     0.035195     0.749631
      20     Ni       1         9.356272     8.679510    -0.035782     0.676762
      21     Ni       1         9.356186     8.679135    -0.035321     0.677050
      22     Ni       1         9.357228     8.607308     0.035464     0.749921
      23     Ni       1         9.357372     8.607134     0.035495     0.750238
      24     Ni       1         9.356259     8.679358    -0.035617     0.676902
      25     Ni       1         9.356206     8.679115    -0.035320     0.677091
      26     Ni       1         9.357303     8.607429     0.035268     0.749874
      27     Ni       1         9.357180     8.606797     0.036023     0.750383
      28     Ni       1         9.356209     8.679348    -0.035557     0.676861
      29     Ni       1         9.356159     8.678912    -0.035071     0.677246
      30     Ni       1         9.357261     8.606409     0.036331     0.750852
      31     Ni       1         9.357275     8.607244     0.035481     0.750031
      32     Ni       1         9.356290     8.679310    -0.035600     0.676981
 # Total charge and spin      299.414159   276.585841    -0.000000    22.828319

 !-----------------------------------------------------------------------------!

 !-----------------------------------------------------------------------------!
                           Hirshfeld Charges

  #Atom  Element  Kind  Ref Charge     Population       Spin moment  Net charge
      1       Ni     1      18.000    9.375   8.629            0.746     -0.003
      2       Ni     1      18.000    9.339   8.658            0.680      0.003
      3       Ni     1      18.000    9.338   8.658            0.680      0.003
      4       Ni     1      18.000    9.375   8.629            0.746     -0.003
      5       Ni     1      18.000    9.375   8.629            0.746     -0.003
      6       Ni     1      18.000    9.339   8.659            0.680      0.003
      7       Ni     1      18.000    9.339   8.658            0.680      0.003
      8       Ni     1      18.000    9.375   8.629            0.746     -0.003
      9       Ni     1      18.000    9.375   8.629            0.746     -0.004
     10       Ni     1      18.000    9.339   8.658            0.680      0.003
     11       Ni     1      18.000    9.339   8.658            0.681      0.004
     12       Ni     1      18.000    9.375   8.628            0.746     -0.003
     13       Ni     1      18.000    9.375   8.629            0.746     -0.003
     14       Ni     1      18.000    9.339   8.658            0.680      0.003
     15       Ni     1      18.000    9.339   8.658            0.680      0.003
     16       Ni     1      18.000    9.375   8.629            0.746     -0.004
     17       Ni     1      18.000    9.339   8.658            0.681      0.003
     18       Ni     1      18.000    9.375   8.628            0.747     -0.003
     19       Ni     1      18.000    9.375   8.629            0.746     -0.004
     20       Ni     1      18.000    9.339   8.658            0.680      0.003
     21       Ni     1      18.000    9.339   8.658            0.681      0.003
     22       Ni     1      18.000    9.375   8.628            0.746     -0.003
     23       Ni     1      18.000    9.375   8.628            0.747     -0.003
     24       Ni     1      18.000    9.339   8.658            0.680      0.003
     25       Ni     1      18.000    9.339   8.658            0.681      0.003
     26       Ni     1      18.000    9.375   8.629            0.746     -0.004
     27       Ni     1      18.000    9.375   8.628            0.747     -0.003
     28       Ni     1      18.000    9.339   8.658            0.680      0.003
     29       Ni     1      18.000    9.339   8.658            0.681      0.004
     30       Ni     1      18.000    9.375   8.628            0.747     -0.002
     31       Ni     1      18.000    9.375   8.628            0.746     -0.003
     32       Ni     1      18.000    9.339   8.658            0.681      0.003

  Total Charge                                                           -0.000
 !-----------------------------------------------------------------------------!

 ENERGY| Total FORCE_EVAL ( QS ) energy (a.u.):            -5417.624755354379886


 -------------------------------------------------------------------------------
 -                                                                             -
 -                                DBCSR STATISTICS                             -
 -                                                                             -
 -------------------------------------------------------------------------------
 COUNTER                                    TOTAL       BLAS       SMM       ACC
 flops    26 x    32 x    26           2303721472       0.0%    100.0%      0.0%
 flops    26 x    26 x    64         144735731712       0.0%    100.0%      0.0%
 flops    26 x    26 x    32         168858353664       0.0%    100.0%      0.0%
 flops inhomo. stacks                           0       0.0%      0.0%      0.0%
 flops total                       315.897807E+09       0.0%    100.0%      0.0%
 flops max/rank                      7.748755E+09       0.0%    100.0%      0.0%
 matmuls inhomo. stacks                         0       0.0%      0.0%      0.0%
 matmuls total                            5628928       0.0%    100.0%      0.0%
 number of processed stacks                848000       0.0%    100.0%      0.0%
 average stack size                                     0.0       6.6       0.0
 marketing flops                   225.983824E+09
 -------------------------------------------------------------------------------
 # multiplications                            530
 max memory usage/rank             246.075392E+06
 # max total images/rank                        5
 # max 3D layers                                1
 # MPI messages exchanged                 1441600
 MPI messages size (bytes):
  total size                        64.570655E+09
  min size                           6.656000E+03
  max size                         133.120000E+03
  average size                      44.790965E+03
 MPI breakdown and total messages size (bytes):
             size <=      128                   0                        0
       128 < size <=     8192              178080               1185300480
      8192 < size <=    32768              458224               7629652992
     32768 < size <=   131072              745104              47742942208
    131072 < size <=  4194304               60192               8012759040
   4194304 < size <= 16777216                   0                        0
  16777216 < size                               0                        0
 -------------------------------------------------------------------------------

 *** WARNING in dbcsr_mm.F:295 :: Using a non-square number of MPI ranks ***
 *** might lead to poor performance. Used ranks: 80 Suggested: 81 169    ***

 -------------------------------------------------------------------------------
 -                                                                             -
 -                      DBCSR MESSAGE PASSING PERFORMANCE                      -
 -                                                                             -
 -------------------------------------------------------------------------------
 ROUTINE             CALLS      AVE VOLUME [Bytes]
 MP_Group              530
 MP_Bcast                4                     12.
 MP_Allreduce         3723                      8.
 MP_Alltoall         14814                  50086.
 MP_Wait             59360
 MP_ISend            42400                  21223.
 MP_IRecv            42400                  20065.
 MP_Memory           96280
 -------------------------------------------------------------------------------

 MEMORY| Estimated peak process memory [MiB]                                 239

 -------------------------------------------------------------------------------
 ----                             MULTIGRID INFO                            ----
 -------------------------------------------------------------------------------
 count for grid        1:         606432          cutoff [a.u.]          300.00
 count for grid        2:         190256          cutoff [a.u.]          100.00
 count for grid        3:         145104          cutoff [a.u.]           33.33
 count for grid        4:          35568          cutoff [a.u.]           11.11
 count for grid        5:           3200          cutoff [a.u.]            3.70
 total gridlevel count  :         980560

 -------------------------------------------------------------------------------
 -                                                                             -
 -                         MESSAGE PASSING PERFORMANCE                         -
 -                                                                             -
 -------------------------------------------------------------------------------

 ROUTINE             CALLS      AVE VOLUME [Bytes]
 MP_Group                5
 MP_Bcast             2515                  78553.
 MP_Allreduce         4565                    205.
 MP_Sync              2113
 MP_Alltoall         14505                1177707.
 MP_ISendRecv       249798                   6677.
 MP_Wait            387190
 MP_ISend           159000                  47764.
 MP_IRecv           158958                  47776.
 MP_Recv               700                 212992.
 MP_Write_All            2                 106650.
 -------------------------------------------------------------------------------


 -------------------------------------------------------------------------------
 -                                                                             -
 -                           R E F E R E N C E S                               -
 -                                                                             -
 -------------------------------------------------------------------------------
 
 CP2K version 7.1, the CP2K developers group (2019).
 CP2K is freely available from https://www.cp2k.org/ .

 Schuett, Ole; Messmer, Peter; Hutter, Juerg; VandeVondele, Joost. 
 Electronic Structure Calculations on Graphics Processing Units, John
 Wiley & Sons, Ltd, 173-190 (2016). 
 GPU-Accelerated Sparse Matrix-Matrix Multiplication for
 Linear Scaling Density Functional Theory.
 https://dx.doi.org/10.1002/9781118670712.ch8

 Borstnik, U; VandeVondele, J; Weber, V; Hutter, J. 
 PARALLEL COMPUTING, 40 (5-6), 47-58 (2014). 
 Sparse matrix multiplication: The distributed block-compressed sparse
 row library.
 https://dx.doi.org/10.1016/j.parco.2014.03.012

 Hutter, J; Iannuzzi, M; Schiffmann, F; VandeVondele, J. 
 WIREs Comput Mol Sci., 4 (1), 15-25 (2014). 
 CP2K: atomistic simulations of condensed matter systems.
 https://dx.doi.org/10.1002/wcms.1159

 Marek, A; Blum, V; Johanni, R; Havu, V; Lang, B; Auckenthaler, T;
 Heinecke, A; Bungartz, H; Lederer, H. 
 Journal of Physics: Condensed Matter, 26 (21), (2014). 
 The ELPA library: scalable parallel eigenvalue solutions for
 electronic structure
 theory and computational science.
 https://dx.doi.org/10.1088/0953-8984/26/21/213201

 Grimme, S; Ehrlich, S; Goerigk, L. 
 JOURNAL OF COMPUTATIONAL CHEMISTRY, 32, 1456 (2011). 
 Effect of the damping function in dispersion corrected density functional theory.
 https://dx.doi.org/10.1002/jcc.21759

 Grimme, S; Antony, J; Ehrlich, S; Krieg, H. 
 JOURNAL OF CHEMICAL PHYSICS, 132 (15), 154104 (2010). 
 A consistent and accurate ab initio parametrization of density
 functional dispersion correction (DFT-D) for the 94 elements H-Pu.
 https://dx.doi.org/10.1063/1.3382344

 VandeVondele, J; Hutter, J. 
 JOURNAL OF CHEMICAL PHYSICS, 127 (11), 114105 (2007). 
 Gaussian basis sets for accurate calculations on molecular systems in
 gas and condensed phases.
 https://dx.doi.org/10.1063/1.2770708

 Krack, M. 
 THEORETICAL CHEMISTRY ACCOUNTS, 114 (1-3), 145-152 (2005). 
 Pseudopotentials for H to Kr optimized for gradient-corrected
 exchange-correlation functionals.
 https://dx.doi.org/10.1007/s00214-005-0655-y

 VandeVondele, J; Krack, M; Mohamed, F; Parrinello, M; Chassaing, T;
 Hutter, J. COMPUTER PHYSICS COMMUNICATIONS, 167 (2), 103-128 (2005). 
 QUICKSTEP: Fast and accurate density functional calculations using a
 mixed Gaussian and plane waves approach.
 https://dx.doi.org/10.1016/j.cpc.2004.12.014

 Frigo, M; Johnson, SG. 
 PROCEEDINGS OF THE IEEE, 93 (2), 216-231 (2005). 
 The design and implementation of FFTW3.
 https://dx.doi.org/10.1109/JPROC.2004.840301

 Hartwigsen, C; Goedecker, S; Hutter, J. 
 PHYSICAL REVIEW B, 58 (7), 3641-3662 (1998). 
 Relativistic separable dual-space Gaussian pseudopotentials from H to Rn.
 https://dx.doi.org/10.1103/PhysRevB.58.3641

 Lippert, G; Hutter, J; Parrinello, M. 
 MOLECULAR PHYSICS, 92 (3), 477-487 (1997). 
 A hybrid Gaussian and plane wave density functional scheme.
 https://dx.doi.org/10.1080/002689797170220

 Perdew, JP; Burke, K; Ernzerhof, M. 
 PHYSICAL REVIEW LETTERS, 77 (18), 3865-3868 (1996). 
 Generalized gradient approximation made simple.
 https://dx.doi.org/10.1103/PhysRevLett.77.3865

 Goedecker, S; Teter, M; Hutter, J. 
 PHYSICAL REVIEW B, 54 (3), 1703-1710 (1996). 
 Separable dual-space Gaussian pseudopotentials.
 https://dx.doi.org/10.1103/PhysRevB.54.1703


 -------------------------------------------------------------------------------
 -                                                                             -
 -                                T I M I N G                                  -
 -                                                                             -
 -------------------------------------------------------------------------------
 SUBROUTINE                       CALLS  ASD         SELF TIME        TOTAL TIME
                                MAXIMUM       AVERAGE  MAXIMUM  AVERAGE  MAXIMUM
 CP2K                                 1  1.0    0.064    0.068  186.043  186.046
 qs_energies                          1  2.0    0.003    0.004  185.534  185.537
 scf_env_do_scf                       1  3.0    0.000    0.000  183.484  183.497
 scf_env_do_scf_inner_loop          263  4.0    0.014    0.035  183.478  183.491
 qs_ks_update_qs_env                263  5.0    0.002    0.002   91.362   91.382
 rebuild_ks_matrix                  263  6.0    0.001    0.001   91.315   91.335
 qs_ks_build_kohn_sham_matrix       263  7.0    0.028    0.035   91.314   91.334
 sum_up_and_integrate               263  8.0    0.086    0.116   47.117   47.129
 integrate_v_rspace                 526  9.0   22.188   28.888   47.030   47.054
 pw_transfer                      10794  9.5    0.514    0.598   44.359   46.756
 fft_wrap_pw1pw2                  10268 10.5    0.060    0.072   43.748   46.155
 fft_wrap_pw1pw2_300               6052 11.6    1.812    2.230   40.941   43.433
 qs_rho_update_rho                  264  5.0    0.002    0.002   43.339   43.378
 calculate_rho_elec                 528  6.0   20.427   25.554   43.338   43.376
 qs_vxc_create                      263  8.0    0.003    0.004   41.928   42.110
 xc_vxc_pw_create                   263  9.0    0.665    0.839   41.924   42.107
 fft3d_ps                         10268 12.5   12.290   16.701   38.470   41.195
 qs_scf_new_mos                     263  5.0    0.004    0.005   35.686   35.742
 eigensolver                        526  6.0    0.022    0.035   30.333   30.353
 rs_pw_transfer                    5274  9.5    0.045    0.052   24.299   28.451
 mp_alltoall_z22v                 10268 14.5   22.029   27.537   22.029   27.537
 xc_rho_set_and_dset_create         263 10.0    0.415    0.466   21.475   26.582
 cp_fm_diag_elpa                    528  7.0    0.003    0.003   25.172   25.326
 cp_fm_diag_elpa_base               528  8.0   24.756   25.021   25.168   25.321
 density_rs2pw                      528  7.0    0.020    0.023   19.666   24.247
 yz_to_x                           2633 13.8    0.558    0.915   13.954   18.125
 potential_pw2rs                    526 10.0    0.024    0.026   17.101   17.139
 xc_functional_eval                 263 11.0    0.002    0.002   10.530   15.676
 pbe_lsd_eval                       263 12.0   10.528   15.674   10.528   15.674
 mp_alltoall_d11v                  7403  9.3    9.197   14.389    9.197   14.389
 rs_distribute_matrix              1054  8.5    0.165    0.320    8.540   13.651
 mp_waitany                      122616 11.5    7.903   12.754    7.903   12.754
 rs_pw_transfer_RS2PW_300           530  9.0    3.214    3.927    8.169   12.377
 gspace_mixing                      262  5.0    0.142    0.207   11.227   11.233
 x_to_yz                           3419 13.4    1.530    2.457    9.805   10.560
 rs_pw_transfer_PW2RS_300           528 12.0    4.753    4.973    7.980    8.232
 broyden_mixing                     262  6.0    6.587    6.941    7.259    7.277
 cp_fm_cholesky_restore            1578  7.0    4.961    5.164    4.961    5.164
 -------------------------------------------------------------------------------

 The number of warnings for this run is : 3
 
 -------------------------------------------------------------------------------
  **** **** ******  **  PROGRAM ENDED AT                 2022-10-13 11:57:32.515
 ***** ** ***  *** **   PROGRAM RAN ON                             node-c12g-029
 **    ****   ******    PROGRAM RAN BY                                   mmm1169
 ***** **    ** ** **   PROGRAM PROCESS ID                                 81503
  **** **  *******  **  PROGRAM STOPPED IN /lustre/scratch/mmm1169/work/other/cp
                                           2k_forum/ni_bulk/aspc-broyden-222-sme
                                           ar-slab/slab_multiplicity-33-alpha-5e
                                           -1-beta-5e-1-scf-1e-3-1e-4
