 DBCSR| CPU Multiplication driver                                           XSMM (U)
 DBCSR| Multrec recursion limit                                              512 (U)
 DBCSR| Multiplication stack size                                           1000 (D)
 DBCSR| Maximum elements for images                                    UNLIMITED (U)
 DBCSR| Multiplicative factor virtual images                                   1 (U)
 DBCSR| Use multiplication densification                                       T (D)
 DBCSR| Multiplication size stacks                                             3 (U)
 DBCSR| Use memory pool for CPU allocation                                     F (U)
 DBCSR| Number of 3D layers                                               SINGLE (U)
 DBCSR| Use MPI memory allocation                                              F (U)
 DBCSR| Use RMA algorithm                                                      F (U)
 DBCSR| Use Communication thread                                               T (U)
 DBCSR| Communication thread load                                             87 (D)
 DBCSR| MPI: My process id                                                     0
 DBCSR| MPI: Number of processes                                             128
 DBCSR| OMP: Current number of threads                                         1
 DBCSR| OMP: Max number of threads                                             1
 DBCSR| Split modifier for TAS multiplication algorithm                  1.0E+00 (U)


  **** **** ******  **  PROGRAM STARTED AT               2023-05-11 23:11:06.452
 ***** ** ***  *** **   PROGRAM STARTED ON                             nid003779
 **    ****   ******    PROGRAM STARTED BY                                cahart
 ***** **    ** ** **   PROGRAM PROCESS ID                                159799
  **** **  *******  **  PROGRAM STARTED IN /mnt/lustre/a2fs-work2/work/e05/e05/c
                                           ahart/postdoc/masters/pt3ni/yike-111/
                                           fm/Ni-2_Pt-0/multiple-restarts/scf-1e
                                           -2_runs-21/pbe-d3_tzv2p-kpoints/raw_o
                                           fficial_4e-2_4e-3_16_100_2000_12-12-1
                                           /scf-5E-4

 CP2K| version string:                                       CP2K version 2023.1
 CP2K| source code revision number:                                  git:b888bd8
 CP2K| cp2kflags: omp libint fftw3 libxc elpa parallel scalapack xsmm plumed2 mk
 CP2K|            l
 CP2K| is freely available from                            https://www.cp2k.org/
 CP2K| Program compiled at                          Tue Jan 24 12:43:13 GMT 2023
 CP2K| Program compiled on                                                  ln03
 CP2K| Program compiled for                                              ARCHER2
 CP2K| Data directory path    /mnt/lustre/a2fs-work1/work/y07/shared/apps/core/c
 CP2K| Input file name                                                 input.inp

 GLOBAL| Force Environment number                                              1
 GLOBAL| Basis set file name                                    BASIS_MOLOPT_UCL
 GLOBAL| Potential file name                                      GTH_POTENTIALS
 GLOBAL| MM Potential file name                                     MM_POTENTIAL
 GLOBAL| Coordinate file name                                         struct.xyz
 GLOBAL| Method name                                                        CP2K
 GLOBAL| Project name                                                      Pt3Ni
 GLOBAL| Run type                                                         ENERGY
 GLOBAL| FFT library                                                       FFTW3
 GLOBAL| Diagonalization library                                            ELPA
 GLOBAL| DGEMM library                                                      BLAS
 GLOBAL| Minimum number of eigenvectors for ELPA usage                        16
 GLOBAL| Orthonormality check for eigenvectors                          DISABLED
 GLOBAL| Matrix multiplication library                                 ScaLAPACK
 GLOBAL| All-to-all communication in single precision                          F
 GLOBAL| FFTs using library dependent lengths                                  F
 GLOBAL| Grid backend                                                       AUTO
 GLOBAL| Global print level                                               MEDIUM
 GLOBAL| MPI I/O enabled                                                       T
 GLOBAL| Total number of message passing processes                           128
 GLOBAL| Number of threads for this process                                    1
 GLOBAL| This output is from process                                           0
 GLOBAL| Stack size for threads created by OpenMP (OMP_STACKSIZE)        default
 GLOBAL| CPU model name                          AMD EPYC 7742 64-Core Processor
 GLOBAL| CPUID                                                              1002

 MEMORY| system memory details [Kb]
 MEMORY|                        rank 0           min           max       average
 MEMORY| MemTotal            263528084     263528084     263528084     263528084
 MEMORY| MemFree             227602604     227602604     227602604     227602604
 MEMORY| Buffers                 31540         31540         31540         31540
 MEMORY| Cached               13633116      13633116      13633116      13633116
 MEMORY| Slab                  3255572       3255572       3255572       3255572
 MEMORY| SReclaimable           144596        144596        144596        144596
 MEMORY| MemLikelyFree       241411856     241411856     241411856     241411856


 *** Fundamental physical constants (SI units) ***

 *** Literature: B. J. Mohr and B. N. Taylor,
 ***             CODATA recommended values of the fundamental physical
 ***             constants: 2006, Web Version 5.1
 ***             http://physics.nist.gov/constants

 Speed of light in vacuum [m/s]                             2.99792458000000E+08
 Magnetic constant or permeability of vacuum [N/A**2]       1.25663706143592E-06
 Electric constant or permittivity of vacuum [F/m]          8.85418781762039E-12
 Planck constant (h) [J*s]                                  6.62606896000000E-34
 Planck constant (h-bar) [J*s]                              1.05457162825177E-34
 Elementary charge [C]                                      1.60217648700000E-19
 Electron mass [kg]                                         9.10938215000000E-31
 Electron g factor [ ]                                     -2.00231930436220E+00
 Proton mass [kg]                                           1.67262163700000E-27
 Fine-structure constant                                    7.29735253760000E-03
 Rydberg constant [1/m]                                     1.09737315685270E+07
 Avogadro constant [1/mol]                                  6.02214179000000E+23
 Boltzmann constant [J/K]                                   1.38065040000000E-23
 Atomic mass unit [kg]                                      1.66053878200000E-27
 Bohr radius [m]                                            5.29177208590000E-11

 *** Conversion factors ***

 [u] -> [a.u.]                                              1.82288848426455E+03
 [Angstrom] -> [Bohr] = [a.u.]                              1.88972613288564E+00
 [a.u.] = [Bohr] -> [Angstrom]                              5.29177208590000E-01
 [a.u.] -> [s]                                              2.41888432650478E-17
 [a.u.] -> [fs]                                             2.41888432650478E-02
 [a.u.] -> [J]                                              4.35974393937059E-18
 [a.u.] -> [N]                                              8.23872205491840E-08
 [a.u.] -> [K]                                              3.15774647902944E+05
 [a.u.] -> [kJ/mol]                                         2.62549961709828E+03
 [a.u.] -> [kcal/mol]                                       6.27509468713739E+02
 [a.u.] -> [Pa]                                             2.94210107994716E+13
 [a.u.] -> [bar]                                            2.94210107994716E+08
 [a.u.] -> [atm]                                            2.90362800883016E+08
 [a.u.] -> [eV]                                             2.72113838565563E+01
 [a.u.] -> [Hz]                                             6.57968392072181E+15
 [a.u.] -> [1/cm] (wave numbers)                            2.19474631370540E+05
 [a.u./Bohr**2] -> [1/cm]                                   5.14048714338585E+03
 

 CELL_TOP| Volume [angstrom^3]:                                      2213.590108
 CELL_TOP| Vector a [angstrom     9.378     0.000     0.000   |a| =     9.378000
 CELL_TOP| Vector b [angstrom    -4.689     8.122     0.000   |b| =     9.378358
 CELL_TOP| Vector c [angstrom     0.000     0.000    29.062   |c| =    29.061899
 CELL_TOP| Angle (b,c), alpha [degree]:                                90.000000
 CELL_TOP| Angle (a,c), beta  [degree]:                                90.000000
 CELL_TOP| Angle (a,b), gamma [degree]:                               119.998736
 CELL_TOP| Numerically orthorhombic:                                          NO
 CELL_TOP| Periodicity                                                       XYZ

 GENERATE|  Preliminary Number of Bonds generated:                             0
 GENERATE|  Achieved consistency in connectivity generation.

 CELL| Volume [angstrom^3]:                                          2213.590108
 CELL| Vector a [angstrom]:       9.378     0.000     0.000   |a| =     9.378000
 CELL| Vector b [angstrom]:      -4.689     8.122     0.000   |b| =     9.378358
 CELL| Vector c [angstrom]:       0.000     0.000    29.062   |c| =    29.061899
 CELL| Angle (b,c), alpha [degree]:                                    90.000000
 CELL| Angle (a,c), beta  [degree]:                                    90.000000
 CELL| Angle (a,b), gamma [degree]:                                   119.998736
 CELL| Numerically orthorhombic:                                              NO
 CELL| Periodicity                                                           XYZ

 CELL_REF| Volume [angstrom^3]:                                      2213.590108
 CELL_REF| Vector a [angstrom     9.378     0.000     0.000   |a| =     9.378000
 CELL_REF| Vector b [angstrom    -4.689     8.122     0.000   |b| =     9.378358
 CELL_REF| Vector c [angstrom     0.000     0.000    29.062   |c| =    29.061899
 CELL_REF| Angle (b,c), alpha [degree]:                                90.000000
 CELL_REF| Angle (a,c), beta  [degree]:                                90.000000
 CELL_REF| Angle (a,b), gamma [degree]:                               119.998736
 CELL_REF| Numerically orthorhombic:                                          NO
 CELL_REF| Periodicity                                                       XYZ

 *** WARNING in cryssym.F:165 :: Symmetry library SPGLIB not available ***


 *******************************************************************************
                                    Kpoints
 *******************************************************************************
 BRILLOUIN| K-point scheme                                        Monkhorst-Pack
 BRILLOUIN| K-Point grid                                            12   12    1
 BRILLOUIN| Accuracy in Symmetry determination                      0.100000E-05
 BRILLOUIN| K-Point point group symmetrization                               OFF
 BRILLOUIN| Wavefunction type                                            COMPLEX
 BRILLOUIN| List of Kpoints [2 Pi/Bohr]                                       72
 BRILLOUIN| Number           Weight            X              Y              Z
 BRILLOUIN|     1           0.01389       -0.45833       -0.45833        0.00000
 BRILLOUIN|     2           0.01389       -0.45833       -0.37500        0.00000
 BRILLOUIN|     3           0.01389       -0.45833       -0.29167        0.00000
 BRILLOUIN|     4           0.01389       -0.45833       -0.20833        0.00000
 BRILLOUIN|     5           0.01389       -0.45833       -0.12500        0.00000
 BRILLOUIN|     6           0.01389       -0.45833       -0.04167        0.00000
 BRILLOUIN|     7           0.01389       -0.45833        0.04167        0.00000
 BRILLOUIN|     8           0.01389       -0.45833        0.12500        0.00000
 BRILLOUIN|     9           0.01389       -0.45833        0.20833        0.00000
 BRILLOUIN|    10           0.01389       -0.45833        0.29167        0.00000
 BRILLOUIN|    11           0.01389       -0.45833        0.37500        0.00000
 BRILLOUIN|    12           0.01389       -0.45833        0.45833        0.00000
 BRILLOUIN|    13           0.01389       -0.37500       -0.45833        0.00000
 BRILLOUIN|    14           0.01389       -0.37500       -0.37500        0.00000
 BRILLOUIN|    15           0.01389       -0.37500       -0.29167        0.00000
 BRILLOUIN|    16           0.01389       -0.37500       -0.20833        0.00000
 BRILLOUIN|    17           0.01389       -0.37500       -0.12500        0.00000
 BRILLOUIN|    18           0.01389       -0.37500       -0.04167        0.00000
 BRILLOUIN|    19           0.01389       -0.37500        0.04167        0.00000
 BRILLOUIN|    20           0.01389       -0.37500        0.12500        0.00000
 BRILLOUIN|    21           0.01389       -0.37500        0.20833        0.00000
 BRILLOUIN|    22           0.01389       -0.37500        0.29167        0.00000
 BRILLOUIN|    23           0.01389       -0.37500        0.37500        0.00000
 BRILLOUIN|    24           0.01389       -0.37500        0.45833        0.00000
 BRILLOUIN|    25           0.01389       -0.29167       -0.45833        0.00000
 BRILLOUIN|    26           0.01389       -0.29167       -0.37500        0.00000
 BRILLOUIN|    27           0.01389       -0.29167       -0.29167        0.00000
 BRILLOUIN|    28           0.01389       -0.29167       -0.20833        0.00000
 BRILLOUIN|    29           0.01389       -0.29167       -0.12500        0.00000
 BRILLOUIN|    30           0.01389       -0.29167       -0.04167        0.00000
 BRILLOUIN|    31           0.01389       -0.29167        0.04167        0.00000
 BRILLOUIN|    32           0.01389       -0.29167        0.12500        0.00000
 BRILLOUIN|    33           0.01389       -0.29167        0.20833        0.00000
 BRILLOUIN|    34           0.01389       -0.29167        0.29167        0.00000
 BRILLOUIN|    35           0.01389       -0.29167        0.37500        0.00000
 BRILLOUIN|    36           0.01389       -0.29167        0.45833        0.00000
 BRILLOUIN|    37           0.01389       -0.20833       -0.45833        0.00000
 BRILLOUIN|    38           0.01389       -0.20833       -0.37500        0.00000
 BRILLOUIN|    39           0.01389       -0.20833       -0.29167        0.00000
 BRILLOUIN|    40           0.01389       -0.20833       -0.20833        0.00000
 BRILLOUIN|    41           0.01389       -0.20833       -0.12500        0.00000
 BRILLOUIN|    42           0.01389       -0.20833       -0.04167        0.00000
 BRILLOUIN|    43           0.01389       -0.20833        0.04167        0.00000
 BRILLOUIN|    44           0.01389       -0.20833        0.12500        0.00000
 BRILLOUIN|    45           0.01389       -0.20833        0.20833        0.00000
 BRILLOUIN|    46           0.01389       -0.20833        0.29167        0.00000
 BRILLOUIN|    47           0.01389       -0.20833        0.37500        0.00000
 BRILLOUIN|    48           0.01389       -0.20833        0.45833        0.00000
 BRILLOUIN|    49           0.01389       -0.12500       -0.45833        0.00000
 BRILLOUIN|    50           0.01389       -0.12500       -0.37500        0.00000
 BRILLOUIN|    51           0.01389       -0.12500       -0.29167        0.00000
 BRILLOUIN|    52           0.01389       -0.12500       -0.20833        0.00000
 BRILLOUIN|    53           0.01389       -0.12500       -0.12500        0.00000
 BRILLOUIN|    54           0.01389       -0.12500       -0.04167        0.00000
 BRILLOUIN|    55           0.01389       -0.12500        0.04167        0.00000
 BRILLOUIN|    56           0.01389       -0.12500        0.12500        0.00000
 BRILLOUIN|    57           0.01389       -0.12500        0.20833        0.00000
 BRILLOUIN|    58           0.01389       -0.12500        0.29167        0.00000
 BRILLOUIN|    59           0.01389       -0.12500        0.37500        0.00000
 BRILLOUIN|    60           0.01389       -0.12500        0.45833        0.00000
 BRILLOUIN|    61           0.01389       -0.04167       -0.45833        0.00000
 BRILLOUIN|    62           0.01389       -0.04167       -0.37500        0.00000
 BRILLOUIN|    63           0.01389       -0.04167       -0.29167        0.00000
 BRILLOUIN|    64           0.01389       -0.04167       -0.20833        0.00000
 BRILLOUIN|    65           0.01389       -0.04167       -0.12500        0.00000
 BRILLOUIN|    66           0.01389       -0.04167       -0.04167        0.00000
 BRILLOUIN|    67           0.01389       -0.04167        0.04167        0.00000
 BRILLOUIN|    68           0.01389       -0.04167        0.12500        0.00000
 BRILLOUIN|    69           0.01389       -0.04167        0.20833        0.00000
 BRILLOUIN|    70           0.01389       -0.04167        0.29167        0.00000
 BRILLOUIN|    71           0.01389       -0.04167        0.37500        0.00000
 BRILLOUIN|    72           0.01389       -0.04167        0.45833        0.00000
 *******************************************************************************

 *******************************************************************************
 *******************************************************************************
 **                                                                           **
 **     #####                         ##              ##                      **
 **    ##   ##            ##          ##              ##                      **
 **   ##     ##                       ##            ######                    **
 **   ##     ##  ##   ##  ##   #####  ##  ##   ####   ##    #####    #####    **
 **   ##     ##  ##   ##  ##  ##      ## ##   ##      ##   ##   ##  ##   ##   **
 **   ##  ## ##  ##   ##  ##  ##      ####     ###    ##   ######   ######    **
 **    ##  ###   ##   ##  ##  ##      ## ##      ##   ##   ##       ##        **
 **     #######   #####   ##   #####  ##  ##  ####    ##    #####   ##        **
 **           ##                                                    ##        **
 **                                                                           **
 **                                                ... make the atoms dance   **
 **                                                                           **
 **            Copyright (C) by CP2K developers group (2000-2022)             **
 **                      J. Chem. Phys. 152, 194103 (2020)                    **
 **                                                                           **
 *******************************************************************************

 *** WARNING in qs_environment.F:1510 :: Kpoints: Different number of MOs   ***
 *** requested. The number of beta MOs will be set to the number alpha MOs. ***


 DFT| Spin unrestricted (spin-polarized) Kohn-Sham calculation               UKS
 DFT| Multiplicity                                                            31
 DFT| Number of spin states                                                    2
 DFT| Charge                                                                   0
 DFT| Self-interaction correction (SIC)                                       NO
 DFT| Cutoffs: density                                              1.000000E-10
 DFT|          gradient                                             1.000000E-10
 DFT|          tau                                                  1.000000E-10
 DFT|          cutoff_smoothing_range                               0.000000E+00
 DFT| XC density smoothing                                                  NONE
 DFT| XC derivatives                                                          PW

 FUNCTIONAL| PBE:
 FUNCTIONAL| J.P.Perdew, K.Burke, M.Ernzerhof, Phys. Rev. Letter, vol. 77, n 18,
 FUNCTIONAL|  pp. 3865-3868, (1996){spin polarized}                             

 vdW POTENTIAL|                                                   Pair Potential
 vdW POTENTIAL|          DFT-D3 (Version 3.1)
 vdW POTENTIAL|          Potential Form: S. Grimme et al, JCP 132: 154104 (2010)
 vdW POTENTIAL|          BJ Damping: S. Grimme et al, JCC 32: 1456 (2011)
 vdW POTENTIAL|          Cutoff Radius [Bohr]:                             20.00
 vdW POTENTIAL|          s6 Scaling Factor:                               1.0000
 vdW POTENTIAL|          a1 Damping Factor:                               0.4289
 vdW POTENTIAL|          s8 Scaling Factor:                               0.7875
 vdW POTENTIAL|          a2 Damping Factor:                               4.4407
 vdW POTENTIAL|          Cutoff for CN calculation:                   0.1000E-05

 QS| Method:                                                                 GPW
 QS| Density plane wave grid type                        NON-SPHERICAL FULLSPACE
 QS| Number of grid levels:                                                    4
 QS| Density cutoff [a.u.]:                                                250.0
 QS| Multi grid cutoff [a.u.]: 1) grid level                               250.0
 QS|                           2) grid level                                83.3
 QS|                           3) grid level                                27.8
 QS|                           4) grid level                                 9.3
 QS| Grid level progression factor:                                          3.0
 QS| Relative density cutoff [a.u.]:                                        30.0
 QS| Interaction thresholds: eps_pgf_orb:                                1.0E-07
 QS|                         eps_filter_matrix:                          0.0E+00
 QS|                         eps_core_charge:                            1.0E-16
 QS|                         eps_rho_gspace:                             1.0E-14
 QS|                         eps_rho_rspace:                             1.0E-14
 QS|                         eps_gvg_rspace:                             1.0E-07
 QS|                         eps_ppl:                                    1.0E-02
 QS|                         eps_ppnl:                                   1.0E-09


 ATOMIC KIND INFORMATION

  1. Atomic kind: Pt_1                                  Number of atoms:      12

     Orbital Basis Set                                       TZV2P-MOLOPT-SR-GTH

       Number of orbital shell sets:                                           1
       Number of orbital shells:                                              12
       Number of primitive Cartesian functions:                                6
       Number of Cartesian basis functions:                                   51
       Number of spherical basis functions:                                   42
       Norm type:                                                              2

       Normalised Cartesian orbitals:

                        Set   Shell   Orbital            Exponent    Coefficient

                          1       1    2s                3.630668      -0.847440
                                                         3.114659       1.689294
                                                         1.999981      -0.894971
                                                         0.885340      -0.073397
                                                         0.330796      -0.102641
                                                         0.105770      -0.062718

                          1       2    3s                3.630668       0.243351
                                                         3.114659       0.525701
                                                         1.999981      -0.353221
                                                         0.885340      -0.194501
                                                         0.330796       0.133188
                                                         0.105770       0.103550

                          1       3    4s                3.630668      -1.677553
                                                         3.114659       0.139051
                                                         1.999981       0.229740
                                                         0.885340       0.871789
                                                         0.330796      -0.602921
                                                         0.105770       0.232545

                          1       4    5s                3.630668      -0.062404
                                                         3.114659       0.351232
                                                         1.999981       0.123855
                                                         0.885340       0.321458
                                                         0.330796       0.106151
                                                         0.105770      -0.005044

                          1       5    3px               3.630668       3.424246
                                                         3.114659      -1.519057
                                                         1.999981      -1.430196
                                                         0.885340      -0.729849
                                                         0.330796      -0.098096
                                                         0.105770       0.013096
                          1       5    3py               3.630668       3.424246
                                                         3.114659      -1.519057
                                                         1.999981      -1.430196
                                                         0.885340      -0.729849
                                                         0.330796      -0.098096
                                                         0.105770       0.013096
                          1       5    3pz               3.630668       3.424246
                                                         3.114659      -1.519057
                                                         1.999981      -1.430196
                                                         0.885340      -0.729849
                                                         0.330796      -0.098096
                                                         0.105770       0.013096

                          1       6    4px               3.630668      -0.958884
                                                         3.114659       0.556877
                                                         1.999981       0.077752
                                                         0.885340      -0.184445
                                                         0.330796       0.139403
                                                         0.105770       0.065163
                          1       6    4py               3.630668      -0.958884
                                                         3.114659       0.556877
                                                         1.999981       0.077752
                                                         0.885340      -0.184445
                                                         0.330796       0.139403
                                                         0.105770       0.065163
                          1       6    4pz               3.630668      -0.958884
                                                         3.114659       0.556877
                                                         1.999981       0.077752
                                                         0.885340      -0.184445
                                                         0.330796       0.139403
                                                         0.105770       0.065163

                          1       7    5px               3.630668       1.363347
                                                         3.114659      -1.970560
                                                         1.999981       1.710611
                                                         0.885340       1.217896
                                                         0.330796      -0.597455
                                                         0.105770       0.096067
                          1       7    5py               3.630668       1.363347
                                                         3.114659      -1.970560
                                                         1.999981       1.710611
                                                         0.885340       1.217896
                                                         0.330796      -0.597455
                                                         0.105770       0.096067
                          1       7    5pz               3.630668       1.363347
                                                         3.114659      -1.970560
                                                         1.999981       1.710611
                                                         0.885340       1.217896
                                                         0.330796      -0.597455
                                                         0.105770       0.096067

                          1       8    4dx2              3.630668      -5.982573
                                                         3.114659       4.610182
                                                         1.999981       0.721675
                                                         0.885340       0.676993
                                                         0.330796       0.105602
                                                         0.105770       0.001692
                          1       8    4dxy              3.630668     -10.362121
                                                         3.114659       7.985070
                                                         1.999981       1.249978
                                                         0.885340       1.172587
                                                         0.330796       0.182908
                                                         0.105770       0.002930
                          1       8    4dxz              3.630668     -10.362121
                                                         3.114659       7.985070
                                                         1.999981       1.249978
                                                         0.885340       1.172587
                                                         0.330796       0.182908
                                                         0.105770       0.002930
                          1       8    4dy2              3.630668      -5.982573
                                                         3.114659       4.610182
                                                         1.999981       0.721675
                                                         0.885340       0.676993
                                                         0.330796       0.105602
                                                         0.105770       0.001692
                          1       8    4dyz              3.630668     -10.362121
                                                         3.114659       7.985070
                                                         1.999981       1.249978
                                                         0.885340       1.172587
                                                         0.330796       0.182908
                                                         0.105770       0.002930
                          1       8    4dz2              3.630668      -5.982573
                                                         3.114659       4.610182
                                                         1.999981       0.721675
                                                         0.885340       0.676993
                                                         0.330796       0.105602
                                                         0.105770       0.001692

                          1       9    5dx2              3.630668       1.813969
                                                         3.114659      -2.312290
                                                         1.999981       0.780807
                                                         0.885340      -0.226709
                                                         0.330796       0.076393
                                                         0.105770       0.026538
                          1       9    5dxy              3.630668       3.141887
                                                         3.114659      -4.005004
                                                         1.999981       1.352397
                                                         0.885340      -0.392672
                                                         0.330796       0.132317
                                                         0.105770       0.045966
                          1       9    5dxz              3.630668       3.141887
                                                         3.114659      -4.005004
                                                         1.999981       1.352397
                                                         0.885340      -0.392672
                                                         0.330796       0.132317
                                                         0.105770       0.045966
                          1       9    5dy2              3.630668       1.813969
                                                         3.114659      -2.312290
                                                         1.999981       0.780807
                                                         0.885340      -0.226709
                                                         0.330796       0.076393
                                                         0.105770       0.026538
                          1       9    5dyz              3.630668       3.141887
                                                         3.114659      -4.005004
                                                         1.999981       1.352397
                                                         0.885340      -0.392672
                                                         0.330796       0.132317
                                                         0.105770       0.045966
                          1       9    5dz2              3.630668       1.813969
                                                         3.114659      -2.312290
                                                         1.999981       0.780807
                                                         0.885340      -0.226709
                                                         0.330796       0.076393
                                                         0.105770       0.026538

                          1      10    6dx2              3.630668       4.007318
                                                         3.114659      -6.556830
                                                         1.999981       3.426876
                                                         0.885340       1.241795
                                                         0.330796      -0.137555
                                                         0.105770       0.004863
                          1      10    6dxy              3.630668       6.940878
                                                         3.114659     -11.356762
                                                         1.999981       5.935524
                                                         0.885340       2.150852
                                                         0.330796      -0.238251
                                                         0.105770       0.008423
                          1      10    6dxz              3.630668       6.940878
                                                         3.114659     -11.356762
                                                         1.999981       5.935524
                                                         0.885340       2.150852
                                                         0.330796      -0.238251
                                                         0.105770       0.008423
                          1      10    6dy2              3.630668       4.007318
                                                         3.114659      -6.556830
                                                         1.999981       3.426876
                                                         0.885340       1.241795
                                                         0.330796      -0.137555
                                                         0.105770       0.004863
                          1      10    6dyz              3.630668       6.940878
                                                         3.114659     -11.356762
                                                         1.999981       5.935524
                                                         0.885340       2.150852
                                                         0.330796      -0.238251
                                                         0.105770       0.008423
                          1      10    6dz2              3.630668       4.007318
                                                         3.114659      -6.556830
                                                         1.999981       3.426876
                                                         0.885340       1.241795
                                                         0.330796      -0.137555
                                                         0.105770       0.004863

                          1      11    5fx3              3.630668       4.880331
                                                         3.114659      -5.484066
                                                         1.999981       1.077049
                                                         0.885340      -0.423284
                                                         0.330796      -0.077160
                                                         0.105770      -0.002252
                          1      11    5fx2y             3.630668      10.912751
                                                         3.114659     -12.262744
                                                         1.999981       2.408356
                                                         0.885340      -0.946492
                                                         0.330796      -0.172534
                                                         0.105770      -0.005036
                          1      11    5fx2z             3.630668      10.912751
                                                         3.114659     -12.262744
                                                         1.999981       2.408356
                                                         0.885340      -0.946492
                                                         0.330796      -0.172534
                                                         0.105770      -0.005036
                          1      11    5fxy2             3.630668      10.912751
                                                         3.114659     -12.262744
                                                         1.999981       2.408356
                                                         0.885340      -0.946492
                                                         0.330796      -0.172534
                                                         0.105770      -0.005036
                          1      11    5fxyz             3.630668      18.901440
                                                         3.114659     -21.239695
                                                         1.999981       4.171395
                                                         0.885340      -1.639371
                                                         0.330796      -0.298839
                                                         0.105770      -0.008723
                          1      11    5fxz2             3.630668      10.912751
                                                         3.114659     -12.262744
                                                         1.999981       2.408356
                                                         0.885340      -0.946492
                                                         0.330796      -0.172534
                                                         0.105770      -0.005036
                          1      11    5fy3              3.630668       4.880331
                                                         3.114659      -5.484066
                                                         1.999981       1.077049
                                                         0.885340      -0.423284
                                                         0.330796      -0.077160
                                                         0.105770      -0.002252
                          1      11    5fy2z             3.630668      10.912751
                                                         3.114659     -12.262744
                                                         1.999981       2.408356
                                                         0.885340      -0.946492
                                                         0.330796      -0.172534
                                                         0.105770      -0.005036
                          1      11    5fyz2             3.630668      10.912751
                                                         3.114659     -12.262744
                                                         1.999981       2.408356
                                                         0.885340      -0.946492
                                                         0.330796      -0.172534
                                                         0.105770      -0.005036
                          1      11    5fz3              3.630668       4.880331
                                                         3.114659      -5.484066
                                                         1.999981       1.077049
                                                         0.885340      -0.423284
                                                         0.330796      -0.077160
                                                         0.105770      -0.002252

                          1      12    6fx3              3.630668      -8.682333
                                                         3.114659       9.316357
                                                         1.999981      -1.528940
                                                         0.885340       0.462012
                                                         0.330796      -0.035620
                                                         0.105770      -0.008089
                          1      12    6fx2y             3.630668     -19.414288
                                                         3.114659      20.832008
                                                         1.999981      -3.418814
                                                         0.885340       1.033091
                                                         0.330796      -0.079649
                                                         0.105770      -0.018087
                          1      12    6fx2z             3.630668     -19.414288
                                                         3.114659      20.832008
                                                         1.999981      -3.418814
                                                         0.885340       1.033091
                                                         0.330796      -0.079649
                                                         0.105770      -0.018087
                          1      12    6fxy2             3.630668     -19.414288
                                                         3.114659      20.832008
                                                         1.999981      -3.418814
                                                         0.885340       1.033091
                                                         0.330796      -0.079649
                                                         0.105770      -0.018087
                          1      12    6fxyz             3.630668     -33.626532
                                                         3.114659      36.082097
                                                         1.999981      -5.921560
                                                         0.885340       1.789366
                                                         0.330796      -0.137957
                                                         0.105770      -0.031328
                          1      12    6fxz2             3.630668     -19.414288
                                                         3.114659      20.832008
                                                         1.999981      -3.418814
                                                         0.885340       1.033091
                                                         0.330796      -0.079649
                                                         0.105770      -0.018087
                          1      12    6fy3              3.630668      -8.682333
                                                         3.114659       9.316357
                                                         1.999981      -1.528940
                                                         0.885340       0.462012
                                                         0.330796      -0.035620
                                                         0.105770      -0.008089
                          1      12    6fy2z             3.630668     -19.414288
                                                         3.114659      20.832008
                                                         1.999981      -3.418814
                                                         0.885340       1.033091
                                                         0.330796      -0.079649
                                                         0.105770      -0.018087
                          1      12    6fyz2             3.630668     -19.414288
                                                         3.114659      20.832008
                                                         1.999981      -3.418814
                                                         0.885340       1.033091
                                                         0.330796      -0.079649
                                                         0.105770      -0.018087
                          1      12    6fz3              3.630668      -8.682333
                                                         3.114659       9.316357
                                                         1.999981      -1.528940
                                                         0.885340       0.462012
                                                         0.330796      -0.035620
                                                         0.105770      -0.008089

       Atomic covalent radius [Angstrom]:                                  1.300

       Atomic van der Waals radius [Angstrom]:                             1.750

     GTH Potential information for                                   GTH-PBE-q18

       Description:                       Goedecker-Teter-Hutter pseudopotential
                                           Goedecker et al., PRB 54, 1703 (1996)
                                          Hartwigsen et al., PRB 58, 3641 (1998)
                                                      Krack, TCA 114, 145 (2005)

       Gaussian exponent of the core charge distribution:               2.000000
       Electronic configuration (s p d ...):                           3   6   9

       Parameters of the local part of the GTH pseudopotential:

                          rloc        C1          C2          C3          C4
                        0.500000    8.814323   -0.292509

       Parameters of the non-local part of the GTH pseudopotential:

                   l      r(l)      h(i,j,l)

                   0    0.298002   -5.968385   24.212900  -13.789679
                                   24.212900  -53.687634   35.604799
                                  -13.789679   35.604799  -28.260433
                   1    0.360172   -6.668659    7.170659    0.766904
                                    7.170659   -7.207661   -1.814825
                                    0.766904   -1.814825    1.289806
                   2    0.340532   -8.589905    9.410122
                                    9.410122  -10.670075

  2. Atomic kind: Ni_1                                  Number of atoms:       6

     Orbital Basis Set                                       TZV2P-MOLOPT-SR-GTH

       Number of orbital shell sets:                                           1
       Number of orbital shells:                                              12
       Number of primitive Cartesian functions:                                6
       Number of Cartesian basis functions:                                   51
       Number of spherical basis functions:                                   42
       Norm type:                                                              2

       Normalised Cartesian orbitals:

                        Set   Shell   Orbital            Exponent    Coefficient

                          1       1    2s               10.077428      -1.203272
                                                         5.847736      -0.937025
                                                         2.494033       1.224095
                                                         0.988355       0.578475
                                                         0.344978      -0.113099
                                                         0.099466      -0.037084

                          1       2    3s               10.077428      -0.460918
                                                         5.847736      -0.526191
                                                         2.494033       0.547821
                                                         0.988355      -0.090708
                                                         0.344978       0.140369
                                                         0.099466       0.076728

                          1       3    4s               10.077428       0.070611
                                                         5.847736      -0.818270
                                                         2.494033       0.755798
                                                         0.988355      -0.445003
                                                         0.344978       0.489633
                                                         0.099466      -0.210485

                          1       4    5s               10.077428       1.874373
                                                         5.847736       0.325754
                                                         2.494033      -0.068920
                                                         0.988355       0.286477
                                                         0.344978       0.084288
                                                         0.099466       0.006855

                          1       5    3px              10.077428      -2.937282
                                                         5.847736       2.917266
                                                         2.494033       2.586705
                                                         0.988355       0.564077
                                                         0.344978      -0.034317
                                                         0.099466       0.007224
                          1       5    3py              10.077428      -2.937282
                                                         5.847736       2.917266
                                                         2.494033       2.586705
                                                         0.988355       0.564077
                                                         0.344978      -0.034317
                                                         0.099466       0.007224
                          1       5    3pz              10.077428      -2.937282
                                                         5.847736       2.917266
                                                         2.494033       2.586705
                                                         0.988355       0.564077
                                                         0.344978      -0.034317
                                                         0.099466       0.007224

                          1       6    4px              10.077428       1.020331
                                                         5.847736      -1.019677
                                                         2.494033      -0.073981
                                                         0.988355      -0.203255
                                                         0.344978       0.007646
                                                         0.099466       0.080583
                          1       6    4py              10.077428       1.020331
                                                         5.847736      -1.019677
                                                         2.494033      -0.073981
                                                         0.988355      -0.203255
                                                         0.344978       0.007646
                                                         0.099466       0.080583
                          1       6    4pz              10.077428       1.020331
                                                         5.847736      -1.019677
                                                         2.494033      -0.073981
                                                         0.988355      -0.203255
                                                         0.344978       0.007646
                                                         0.099466       0.080583

                          1       7    5px              10.077428       2.304393
                                                         5.847736      -1.721811
                                                         2.494033       0.012776
                                                         0.988355      -0.148196
                                                         0.344978      -0.339052
                                                         0.099466      -0.000866
                          1       7    5py              10.077428       2.304393
                                                         5.847736      -1.721811
                                                         2.494033       0.012776
                                                         0.988355      -0.148196
                                                         0.344978      -0.339052
                                                         0.099466      -0.000866
                          1       7    5pz              10.077428       2.304393
                                                         5.847736      -1.721811
                                                         2.494033       0.012776
                                                         0.988355      -0.148196
                                                         0.344978      -0.339052
                                                         0.099466      -0.000866

                          1       8    4dx2             10.077428       8.337849
                                                         5.847736       9.302733
                                                         2.494033       2.938471
                                                         0.988355       0.543572
                                                         0.344978       0.058754
                                                         0.099466       0.003146
                          1       8    4dxy             10.077428      14.441578
                                                         5.847736      16.112806
                                                         2.494033       5.089581
                                                         0.988355       0.941494
                                                         0.344978       0.101764
                                                         0.099466       0.005449
                          1       8    4dxz             10.077428      14.441578
                                                         5.847736      16.112806
                                                         2.494033       5.089581
                                                         0.988355       0.941494
                                                         0.344978       0.101764
                                                         0.099466       0.005449
                          1       8    4dy2             10.077428       8.337849
                                                         5.847736       9.302733
                                                         2.494033       2.938471
                                                         0.988355       0.543572
                                                         0.344978       0.058754
                                                         0.099466       0.003146
                          1       8    4dyz             10.077428      14.441578
                                                         5.847736      16.112806
                                                         2.494033       5.089581
                                                         0.988355       0.941494
                                                         0.344978       0.101764
                                                         0.099466       0.005449
                          1       8    4dz2             10.077428       8.337849
                                                         5.847736       9.302733
                                                         2.494033       2.938471
                                                         0.988355       0.543572
                                                         0.344978       0.058754
                                                         0.099466       0.003146

                          1       9    5dx2             10.077428      -4.653022
                                                         5.847736      -5.008865
                                                         2.494033      -1.700612
                                                         0.988355      -0.250612
                                                         0.344978       0.100956
                                                         0.099466       0.020541
                          1       9    5dxy             10.077428      -8.059271
                                                         5.847736      -8.675608
                                                         2.494033      -2.945546
                                                         0.988355      -0.434073
                                                         0.344978       0.174861
                                                         0.099466       0.035579
                          1       9    5dxz             10.077428      -8.059271
                                                         5.847736      -8.675608
                                                         2.494033      -2.945546
                                                         0.988355      -0.434073
                                                         0.344978       0.174861
                                                         0.099466       0.035579
                          1       9    5dy2             10.077428      -4.653022
                                                         5.847736      -5.008865
                                                         2.494033      -1.700612
                                                         0.988355      -0.250612
                                                         0.344978       0.100956
                                                         0.099466       0.020541
                          1       9    5dyz             10.077428      -8.059271
                                                         5.847736      -8.675608
                                                         2.494033      -2.945546
                                                         0.988355      -0.434073
                                                         0.344978       0.174861
                                                         0.099466       0.035579
                          1       9    5dz2             10.077428      -4.653022
                                                         5.847736      -5.008865
                                                         2.494033      -1.700612
                                                         0.988355      -0.250612
                                                         0.344978       0.100956
                                                         0.099466       0.020541

                          1      10    6dx2             10.077428       8.070047
                                                         5.847736       5.922829
                                                         2.494033       4.135603
                                                         0.988355      -0.444413
                                                         0.344978      -0.231916
                                                         0.099466       0.018355
                          1      10    6dxy             10.077428      13.977732
                                                         5.847736      10.258640
                                                         2.494033       7.163075
                                                         0.988355      -0.769746
                                                         0.344978      -0.401690
                                                         0.099466       0.031792
                          1      10    6dxz             10.077428      13.977732
                                                         5.847736      10.258640
                                                         2.494033       7.163075
                                                         0.988355      -0.769746
                                                         0.344978      -0.401690
                                                         0.099466       0.031792
                          1      10    6dy2             10.077428       8.070047
                                                         5.847736       5.922829
                                                         2.494033       4.135603
                                                         0.988355      -0.444413
                                                         0.344978      -0.231916
                                                         0.099466       0.018355
                          1      10    6dyz             10.077428      13.977732
                                                         5.847736      10.258640
                                                         2.494033       7.163075
                                                         0.988355      -0.769746
                                                         0.344978      -0.401690
                                                         0.099466       0.031792
                          1      10    6dz2             10.077428       8.070047
                                                         5.847736       5.922829
                                                         2.494033       4.135603
                                                         0.988355      -0.444413
                                                         0.344978      -0.231916
                                                         0.099466       0.018355

                          1      11    5fx3             10.077428      -3.648786
                                                         5.847736       2.509665
                                                         2.494033      -0.259557
                                                         0.988355       0.293274
                                                         0.344978       0.073682
                                                         0.099466       0.004253
                          1      11    5fx2y            10.077428      -8.158933
                                                         5.847736       5.611781
                                                         2.494033      -0.580386
                                                         0.988355       0.655781
                                                         0.344978       0.164758
                                                         0.099466       0.009509
                          1      11    5fx2z            10.077428      -8.158933
                                                         5.847736       5.611781
                                                         2.494033      -0.580386
                                                         0.988355       0.655781
                                                         0.344978       0.164758
                                                         0.099466       0.009509
                          1      11    5fxy2            10.077428      -8.158933
                                                         5.847736       5.611781
                                                         2.494033      -0.580386
                                                         0.988355       0.655781
                                                         0.344978       0.164758
                                                         0.099466       0.009509
                          1      11    5fxyz            10.077428     -14.131686
                                                         5.847736       9.719889
                                                         2.494033      -1.005259
                                                         0.988355       1.135847
                                                         0.344978       0.285370
                                                         0.099466       0.016471
                          1      11    5fxz2            10.077428      -8.158933
                                                         5.847736       5.611781
                                                         2.494033      -0.580386
                                                         0.988355       0.655781
                                                         0.344978       0.164758
                                                         0.099466       0.009509
                          1      11    5fy3             10.077428      -3.648786
                                                         5.847736       2.509665
                                                         2.494033      -0.259557
                                                         0.988355       0.293274
                                                         0.344978       0.073682
                                                         0.099466       0.004253
                          1      11    5fy2z            10.077428      -8.158933
                                                         5.847736       5.611781
                                                         2.494033      -0.580386
                                                         0.988355       0.655781
                                                         0.344978       0.164758
                                                         0.099466       0.009509
                          1      11    5fyz2            10.077428      -8.158933
                                                         5.847736       5.611781
                                                         2.494033      -0.580386
                                                         0.988355       0.655781
                                                         0.344978       0.164758
                                                         0.099466       0.009509
                          1      11    5fz3             10.077428      -3.648786
                                                         5.847736       2.509665
                                                         2.494033      -0.259557
                                                         0.988355       0.293274
                                                         0.344978       0.073682
                                                         0.099466       0.004253

                          1      12    6fx3             10.077428       2.763843
                                                         5.847736       1.373857
                                                         2.494033       2.401696
                                                         0.988355       0.983912
                                                         0.344978       0.027367
                                                         0.099466      -0.003900
                          1      12    6fx2y            10.077428       6.180140
                                                         5.847736       3.072038
                                                         2.494033       5.370356
                                                         0.988355       2.200094
                                                         0.344978       0.061194
                                                         0.099466      -0.008721
                          1      12    6fx2z            10.077428       6.180140
                                                         5.847736       3.072038
                                                         2.494033       5.370356
                                                         0.988355       2.200094
                                                         0.344978       0.061194
                                                         0.099466      -0.008721
                          1      12    6fxy2            10.077428       6.180140
                                                         5.847736       3.072038
                                                         2.494033       5.370356
                                                         0.988355       2.200094
                                                         0.344978       0.061194
                                                         0.099466      -0.008721
                          1      12    6fxyz            10.077428      10.704316
                                                         5.847736       5.320925
                                                         2.494033       9.301729
                                                         0.988355       3.810675
                                                         0.344978       0.105992
                                                         0.099466      -0.015105
                          1      12    6fxz2            10.077428       6.180140
                                                         5.847736       3.072038
                                                         2.494033       5.370356
                                                         0.988355       2.200094
                                                         0.344978       0.061194
                                                         0.099466      -0.008721
                          1      12    6fy3             10.077428       2.763843
                                                         5.847736       1.373857
                                                         2.494033       2.401696
                                                         0.988355       0.983912
                                                         0.344978       0.027367
                                                         0.099466      -0.003900
                          1      12    6fy2z            10.077428       6.180140
                                                         5.847736       3.072038
                                                         2.494033       5.370356
                                                         0.988355       2.200094
                                                         0.344978       0.061194
                                                         0.099466      -0.008721
                          1      12    6fyz2            10.077428       6.180140
                                                         5.847736       3.072038
                                                         2.494033       5.370356
                                                         0.988355       2.200094
                                                         0.344978       0.061194
                                                         0.099466      -0.008721
                          1      12    6fz3             10.077428       2.763843
                                                         5.847736       1.373857
                                                         2.494033       2.401696
                                                         0.988355       0.983912
                                                         0.344978       0.027367
                                                         0.099466      -0.003900

       Atomic covalent radius [Angstrom]:                                  1.150

       Atomic van der Waals radius [Angstrom]:                             1.630

     GTH Potential information for                                   GTH-PBE-q18

       Description:                       Goedecker-Teter-Hutter pseudopotential
                                           Goedecker et al., PRB 54, 1703 (1996)
                                          Hartwigsen et al., PRB 58, 3641 (1998)
                                                      Krack, TCA 114, 145 (2005)

       Gaussian exponent of the core charge distribution:               4.081633
       Electronic configuration (s p d ...):                           4   6   8

       Parameters of the local part of the GTH pseudopotential:

                          rloc        C1          C2          C3          C4
                        0.350000    2.102166    0.648484

       Parameters of the non-local part of the GTH pseudopotential:

                   l      r(l)      h(i,j,l)

                   0    0.261295    0.622658    9.970227
                                    9.970227  -12.871507
                   1    0.224253  -11.142708   12.429566
                                   12.429566  -14.706861
                   2    0.215348  -12.628146

  3. Atomic kind: Pt_2                                  Number of atoms:       6

     Orbital Basis Set                                       TZV2P-MOLOPT-SR-GTH

       Number of orbital shell sets:                                           1
       Number of orbital shells:                                              12
       Number of primitive Cartesian functions:                                6
       Number of Cartesian basis functions:                                   51
       Number of spherical basis functions:                                   42
       Norm type:                                                              2

       Normalised Cartesian orbitals:

                        Set   Shell   Orbital            Exponent    Coefficient

                          1       1    2s                3.630668      -0.847440
                                                         3.114659       1.689294
                                                         1.999981      -0.894971
                                                         0.885340      -0.073397
                                                         0.330796      -0.102641
                                                         0.105770      -0.062718

                          1       2    3s                3.630668       0.243351
                                                         3.114659       0.525701
                                                         1.999981      -0.353221
                                                         0.885340      -0.194501
                                                         0.330796       0.133188
                                                         0.105770       0.103550

                          1       3    4s                3.630668      -1.677553
                                                         3.114659       0.139051
                                                         1.999981       0.229740
                                                         0.885340       0.871789
                                                         0.330796      -0.602921
                                                         0.105770       0.232545

                          1       4    5s                3.630668      -0.062404
                                                         3.114659       0.351232
                                                         1.999981       0.123855
                                                         0.885340       0.321458
                                                         0.330796       0.106151
                                                         0.105770      -0.005044

                          1       5    3px               3.630668       3.424246
                                                         3.114659      -1.519057
                                                         1.999981      -1.430196
                                                         0.885340      -0.729849
                                                         0.330796      -0.098096
[...]
      6       Pt     1      18.000    9.036   8.959            0.078      0.005
      7       Pt     1      18.000    9.049   8.950            0.099      0.001
      8       Pt     1      18.000    9.036   8.956            0.079      0.008
      9       Pt     1      18.000    9.058   8.925            0.133      0.017
     10       Pt     1      18.000    9.058   8.924            0.134      0.017
     11       Pt     1      18.000    9.059   8.921            0.138      0.020
     12       Pt     1      18.000    9.059   8.921            0.138      0.020
     13       Ni     2      18.000    9.491   8.678            0.812     -0.169
     14       Ni     2      18.000    9.488   8.682            0.807     -0.170
     15       Ni     2      18.000    9.487   8.684            0.803     -0.170
     16       Ni     2      18.000    9.501   8.655            0.847     -0.156
     17       Pt     3      18.000    9.041   8.856            0.185      0.103
     18       Pt     3      18.000    9.041   8.855            0.187      0.104
     19       Ni     2      18.000    9.500   8.655            0.845     -0.156
     20       Ni     2      18.000    9.499   8.657            0.841     -0.156
     21       Pt     3      18.000    9.041   8.856            0.185      0.103
     22       Pt     3      18.000    9.041   8.853            0.188      0.106
     23       Pt     3      18.000    9.041   8.854            0.187      0.105
     24       Pt     3      18.000    9.041   8.853            0.189      0.106
     25       Pt     4      18.000    9.051   8.835            0.216      0.114
     26       Pt     4      18.000    9.022   8.876            0.146      0.102
     27       Ni     5      18.000    9.404   8.777            0.627     -0.181
     28       Pt     4      18.000    9.051   8.836            0.215      0.113
     29       Pt     4      18.000    9.051   8.834            0.216      0.115
     30       Pt     4      18.000    9.051   8.835            0.216      0.114
     31       Ni     5      18.000    9.407   8.774            0.633     -0.181
     32       Pt     4      18.000    9.022   8.876            0.146      0.103
     33       Ni     5      18.000    9.400   8.783            0.617     -0.183
     34       Pt     4      18.000    9.051   8.836            0.215      0.113
     35       Pt     4      18.000    9.051   8.834            0.217      0.115
     36       Pt     4      18.000    9.022   8.874            0.147      0.104
     37       Pt     6      18.000    9.041   8.852            0.189      0.107
     38       Pt     6      18.000    9.041   8.853            0.187      0.106
     39       Pt     6      18.000    9.041   8.852            0.189      0.107
     40       Pt     6      18.000    9.040   8.855            0.185      0.104
     41       Ni     7      18.000    9.500   8.652            0.848     -0.153
     42       Pt     6      18.000    9.041   8.854            0.187      0.105
     43       Ni     7      18.000    9.499   8.653            0.846     -0.153
     44       Pt     6      18.000    9.041   8.855            0.185      0.104
     45       Ni     7      18.000    9.502   8.651            0.851     -0.153
     46       Ni     7      18.000    9.487   8.680            0.807     -0.167
     47       Ni     7      18.000    9.491   8.675            0.815     -0.166
     48       Ni     7      18.000    9.489   8.678            0.811     -0.167
     49       Pt     8      18.000    9.058   8.921            0.138      0.021
     50       Pt     8      18.000    9.058   8.920            0.138      0.021
     51       Pt     8      18.000    9.057   8.924            0.133      0.019
     52       Pt     8      18.000    9.057   8.924            0.133      0.019
     53       Pt     8      18.000    9.036   8.955            0.081      0.009
     54       Pt     8      18.000    9.049   8.949            0.101      0.002
     55       Pt     8      18.000    9.036   8.957            0.079      0.006
     56       Pt     8      18.000    9.050   8.951            0.099     -0.001
     57       Pt     8      18.000    9.055   8.931            0.124      0.015
     58       Pt     8      18.000    9.055   8.931            0.124      0.015
     59       Pt     8      18.000    9.037   8.961            0.076      0.002
     60       Pt     8      18.000    9.050   8.956            0.094     -0.006

  Total Charge                                                            0.000
 !-----------------------------------------------------------------------------!

 ENERGY| Total FORCE_EVAL ( QS ) energy [a.u.]:            -7949.331367248714741

 -------------------------------------------------------------------------------
 -                                                                             -
 -                                DBCSR STATISTICS                             -
 -                                                                             -
 -------------------------------------------------------------------------------
 COUNTER                                    TOTAL       BLAS       SMM       ACC
 flops inhomo. stacks                           0       0.0%      0.0%      0.0%
 flops total                         0.000000E+00       0.0%      0.0%      0.0%
 flops max/rank                      0.000000E+00       0.0%      0.0%      0.0%
 matmuls inhomo. stacks                         0       0.0%      0.0%      0.0%
 matmuls total                                  0       0.0%      0.0%      0.0%
 number of processed stacks                     0       0.0%      0.0%      0.0%
 average stack size                                     0.0       0.0       0.0
 marketing flops                     0.000000E+00
 -------------------------------------------------------------------------------
 -                                                                             -
 -                      DBCSR MESSAGE PASSING PERFORMANCE                      -
 -                                                                             -
 -------------------------------------------------------------------------------
 ROUTINE             CALLS      AVE VOLUME [Bytes]
 MP_Bcast                1                     12.
 MP_Allreduce         2879                      8.
 MP_Alltoall        132358                 262317.
 -------------------------------------------------------------------------------

 -------------------------------------------------------------------------------
 -                                                                             -
 -                                DBM STATISTICS                               -
 -                                                                             -
 -------------------------------------------------------------------------------
    M  x    N  x    K                                          COUNT     PERCENT
 -------------------------------------------------------------------------------

 -------------------------------------------------------------------------------
 -                                                                             -
 -                                GRID STATISTICS                              -
 -                                                                             -
 -------------------------------------------------------------------------------
 LP    KERNEL             BACKEND                              COUNT     PERCENT
 6     collocate general  REF                                2242104      49.94%
 6     integrate general  REF                                2055262      45.78%
 0     integrate general  REF                                 122880       2.74%
 0     collocate general  REF                                  69120       1.54%
 -------------------------------------------------------------------------------

 MEMORY| Estimated peak process memory [MiB]                                1350

 -------------------------------------------------------------------------------
 ----                             MULTIGRID INFO                            ----
 -------------------------------------------------------------------------------
 count for grid        1:      112192845          cutoff [a.u.]          250.00
 count for grid        2:       39025659          cutoff [a.u.]           83.33
 count for grid        3:       14257114          cutoff [a.u.]           27.78
 count for grid        4:        4782703          cutoff [a.u.]            9.26
 total gridlevel count  :      170258321

 -------------------------------------------------------------------------------
 -                                                                             -
 -                         MESSAGE PASSING PERFORMANCE                         -
 -                                                                             -
 -------------------------------------------------------------------------------

 ROUTINE             CALLS      AVE VOLUME [Bytes]
 MP_Group                5
 MP_Bcast            67884                 128593.
 MP_Allreduce         2029                   4609.
 MP_Sync                 4
 MP_Alltoall           595                3149968.
 MP_SendRecv          6096                  12120.
 MP_ISendRecv         5588                  12120.
 MP_Wait             66350
 MP_ISend            59984                  79626.
 MP_IRecv            84932                  56246.
 MP_Recv             10140                 645120.
 MP_Write_All            2                 168576.
 -------------------------------------------------------------------------------


 -------------------------------------------------------------------------------
 -                                                                             -
 -                           R E F E R E N C E S                               -
 -                                                                             -
 -------------------------------------------------------------------------------
 
 CP2K version 2023.1, the CP2K developers group (2023).
 CP2K is freely available from https://www.cp2k.org/ .

 Kuehne,Thomas D.; Iannuzzi,Marcella; Del Ben,Mauro;
 Rybkin,Vladimir V.; Seewald,Patrick; Stein,Frederick; Laino,Teodoro;
 Khaliullin,Rustam Z.; Schuett,Ole; Schiffmann,Florian; Golze,Dorothea;
 Wilhelm,Jan; Chulkov,Sergey; Bani-Hashemian,Mohammad Hossein;
 Weber,Valery; Borstnik,Urban; Taillefumier,Mathieu;
 Jakobovits,Alice Shoshana; Lazzaro,Alfio; Pabst,Hans; Mueller,Tiziano;
 Schade,Robert; Guidon,Manuel; Andermatt,Samuel; Holmberg,Nico;
 Schenter,Gregory K.; Hehn,Anna; Bussy,Augustin; Belleflamme,Fabian;
 Tabacchi,Gloria; Gloess,Andreas; Lass,Michael; Bethune,Iain;
 Mundy,Christopher J.; Plessl,Christian; Watkins,Matt;
 VandeVondele,Joost; Krack,Matthias; Hutter,Juerg. 
 The Journal of Chemical Physics, 152 (19), (2020). 
 CP2K: An electronic structure and molecular dynamics software package -
 Quickstep: Efficient and accurate electronic structure calculations.
 https://doi.org/10.1063/5.0007045

 Goerigk, Lars; Hansen, Andreas; Bauer, Christoph; Ehrlich, Stephan;
 Najibi, Asim; Grimme, Stefan. , 19 (48), (2017). 
 A look at the density functional theory zoo with the advanced GMTKN55 database
 for general main group thermochemistry, kinetics and noncovalent interactions.
 https://doi.org/10.1039/C7CP04913G

 Schuett, Ole; Messmer, Peter; Hutter, Juerg; VandeVondele, Joost. 
 Electronic Structure Calculations on Graphics Processing Units, John
 Wiley & Sons, Ltd, 173-190 (2016). 
 GPU-Accelerated Sparse Matrix-Matrix Multiplication for
 Linear Scaling Density Functional Theory.
 https://doi.org/10.1002/9781118670712.ch8

 Heinecke, A; Henry, G; Hutchinson, M; Pabst, H. 
 Proceedings of Intl. Supercomputing Conference, 981-991 (2016). 
 LIBXSMM: Accelerating Small Matrix Multiplications
 by Runtime Code Generation.
 https://doi.org/10.1109/SC.2016.83

 Borstnik, U; VandeVondele, J; Weber, V; Hutter, J. 
 PARALLEL COMPUTING, 40 (5-6), 47-58 (2014). 
 Sparse matrix multiplication: The distributed block-compressed sparse
 row library.
 https://doi.org/10.1016/j.parco.2014.03.012

 Hutter, J; Iannuzzi, M; Schiffmann, F; VandeVondele, J. 
 WIREs Comput Mol Sci., 4 (1), 15-25 (2014). 
 CP2K: atomistic simulations of condensed matter systems.
 https://doi.org/10.1002/wcms.1159

 Marek, A; Blum, V; Johanni, R; Havu, V; Lang, B; Auckenthaler, T;
 Heinecke, A; Bungartz, H; Lederer, H. 
 Journal of Physics: Condensed Matter, 26 (21), (2014). 
 The ELPA library: scalable parallel eigenvalue solutions for
 electronic structure
 theory and computational science.
 https://doi.org/10.1088/0953-8984/26/21/213201

 Grimme, S; Ehrlich, S; Goerigk, L. 
 JOURNAL OF COMPUTATIONAL CHEMISTRY, 32, 1456 (2011). 
 Effect of the damping function in dispersion corrected density functional theory.
 https://doi.org/10.1002/jcc.21759

 Grimme, S; Antony, J; Ehrlich, S; Krieg, H. 
 JOURNAL OF CHEMICAL PHYSICS, 132 (15), 154104 (2010). 
 A consistent and accurate ab initio parametrization of density
 functional dispersion correction (DFT-D) for the 94 elements H-Pu.
 https://doi.org/10.1063/1.3382344

 VandeVondele, J; Hutter, J. 
 JOURNAL OF CHEMICAL PHYSICS, 127 (11), 114105 (2007). 
 Gaussian basis sets for accurate calculations on molecular systems in
 gas and condensed phases.
 https://doi.org/10.1063/1.2770708

 Krack, M. 
 THEORETICAL CHEMISTRY ACCOUNTS, 114 (1-3), 145-152 (2005). 
 Pseudopotentials for H to Kr optimized for gradient-corrected
 exchange-correlation functionals.
 https://doi.org/10.1007/s00214-005-0655-y

 VandeVondele, J; Krack, M; Mohamed, F; Parrinello, M; Chassaing, T;
 Hutter, J. COMPUTER PHYSICS COMMUNICATIONS, 167 (2), 103-128 (2005). 
 QUICKSTEP: Fast and accurate density functional calculations using a
 mixed Gaussian and plane waves approach.
 https://doi.org/10.1016/j.cpc.2004.12.014

 Frigo, M; Johnson, SG. 
 PROCEEDINGS OF THE IEEE, 93 (2), 216-231 (2005). 
 The design and implementation of FFTW3.
 https://doi.org/10.1109/JPROC.2004.840301

 Hartwigsen, C; Goedecker, S; Hutter, J. 
 PHYSICAL REVIEW B, 58 (7), 3641-3662 (1998). 
 Relativistic separable dual-space Gaussian pseudopotentials from H to Rn.
 https://doi.org/10.1103/PhysRevB.58.3641

 Lippert, G; Hutter, J; Parrinello, M. 
 MOLECULAR PHYSICS, 92 (3), 477-487 (1997). 
 A hybrid Gaussian and plane wave density functional scheme.
 https://doi.org/10.1080/002689797170220

 Perdew, JP; Burke, K; Ernzerhof, M. 
 PHYSICAL REVIEW LETTERS, 77 (18), 3865-3868 (1996). 
 Generalized gradient approximation made simple.
 https://doi.org/10.1103/PhysRevLett.77.3865

 Goedecker, S; Teter, M; Hutter, J. 
 PHYSICAL REVIEW B, 54 (3), 1703-1710 (1996). 
 Separable dual-space Gaussian pseudopotentials.
 https://doi.org/10.1103/PhysRevB.54.1703


 -------------------------------------------------------------------------------
 -                                                                             -
 -                                T I M I N G                                  -
 -                                                                             -
 -------------------------------------------------------------------------------
 SUBROUTINE                       CALLS  ASD         SELF TIME        TOTAL TIME
                                MAXIMUM       AVERAGE  MAXIMUM  AVERAGE  MAXIMUM
 CP2K                                 1  1.0    0.888    0.951  982.278  982.289
 qs_energies                          1  2.0    0.291    0.326  977.662  977.668
 scf_env_do_scf                       1  3.0    0.017    0.019  946.121  946.122
 scf_env_do_scf_inner_loop           11  4.0    0.096    0.098  946.102  946.103
 qs_scf_new_mos_kp                   11  5.0    0.000    0.000  863.100  863.135
 do_general_diag_kp                  11  6.0    0.087    0.100  863.100  863.135
 cp_cfm_geeig                       198  7.0    0.010    0.011  725.487  732.107
 cp_cfm_heevd                       198  8.0  423.757  432.087  423.757  432.087
 cp_cfm_triangular_multiply         594  8.0  235.353  238.042  235.353  238.042
 mp_alltoall_d11v                 67744  9.4   52.564   58.455   52.564   58.455
 copy_dbcsr_to_fm                  6466  7.0    0.216    0.438   38.870   43.043
 cp_cfm_cholesky_decompose          198  8.0   40.205   42.996   40.205   42.996
 cp_fm_start_copy_general          9504  7.3    7.582    7.909   40.749   41.125
 qs_ks_update_qs_env                 11  5.0    0.000    0.000   40.642   40.669
 rebuild_ks_matrix                   11  6.0    0.001    0.001   40.071   40.098
 qs_ks_build_kohn_sham_matrix        11  7.0    0.122    0.125   40.070   40.098
 sum_up_and_integrate                11  8.0    0.017    0.021   37.239   37.387
 integrate_v_rspace                  22  9.0    0.001    0.002   37.221   37.368
 kpoint_density_transform            11  7.0    0.016    0.019   35.758   35.906
 grid_integrate_task_list            22 10.0    6.808   34.928    6.808   34.928
 mp_allgather_i                   19008  8.3   32.829   34.583   32.829   34.583
 qs_rho_update_rho_low               12  5.0    0.000    0.000   33.875   34.046
 calculate_rho_elec                  24  6.0    0.008    0.008   33.875   34.046
 rs_gather_matrices                  22 10.0    0.073    0.116   28.346   32.733
 rs_pw_transfer                     188  9.4    0.004    0.005   28.109   32.597
 grid_collocate_task_list            24  7.0    6.727   31.362    6.727   31.362
 mp_waitany                       18404 11.3   26.448   31.079   26.448   31.079
 dbcsr_complete_redistribute       9764  8.3    4.124    4.674   29.063   30.741
 density_rs2pw                       24  7.0    0.001    0.002   26.575   30.650
 rs_pw_transfer_RS2PW_250            26  8.9    0.195    0.335   25.784   30.269
 dbcsr_desymmetrize_deep          12802  7.5    2.188    3.151   22.988   29.265
 cp_cfm_triangular_invert           198  8.0   26.073   26.405   26.073   26.405
 kpoint_density_matrices             11  7.0    0.040    0.046   24.415   24.632
 parallel_gemm_fm                   792  8.0    0.003    0.003   24.283   24.533
 parallel_gemm_fm_gemm              792  9.0    0.003    0.003   24.280   24.531
 cp_fm_gemm                         792 10.0   24.278   24.529   24.278   24.529
 init_scf_run                         1  3.0    0.000    0.000   24.322   24.347
 scf_env_initial_rho_setup            1  4.0    0.001    0.002   24.322   24.347
 mp_alltoall_i22                  22566  8.8   14.760   22.900   14.760   22.900
 calculate_first_density_matrix       1  5.0    0.002    0.002   21.177   21.202
 read_kpoints_restart                 1  6.0    0.001    0.002   21.150   21.150
 mp_bcast_im                      29278  8.2   20.951   21.027   20.951   21.027
 cp_fm_read_unformatted             130  7.0    0.055    3.703   20.928   20.955
 kpoint_set_mo_occupation            11  7.0    2.177    2.206    9.237   20.550
 -------------------------------------------------------------------------------

 The number of warnings for this run is : 3
 
 -------------------------------------------------------------------------------
  **** **** ******  **  PROGRAM ENDED AT                 2023-05-11 23:27:35.990
 ***** ** ***  *** **   PROGRAM RAN ON                                 nid003779
 **    ****   ******    PROGRAM RAN BY                                    cahart
 ***** **    ** ** **   PROGRAM PROCESS ID                                159799
  **** **  *******  **  PROGRAM STOPPED IN /mnt/lustre/a2fs-work2/work/e05/e05/c
                                           ahart/postdoc/masters/pt3ni/yike-111/
                                           fm/Ni-2_Pt-0/multiple-restarts/scf-1e
                                           -2_runs-21/pbe-d3_tzv2p-kpoints/raw_o
                                           fficial_4e-2_4e-3_16_100_2000_12-12-1
                                           /scf-5E-4
