 DBCSR| CPU Multiplication driver                                           XSMM (U)
 DBCSR| Multrec recursion limit                                              512 (U)
 DBCSR| Multiplication stack size                                           1000 (D)
 DBCSR| Maximum elements for images                                    UNLIMITED (U)
 DBCSR| Multiplicative factor virtual images                                   1 (U)
 DBCSR| Use multiplication densification                                       T (D)
 DBCSR| Multiplication size stacks                                             3 (U)
 DBCSR| Use memory pool for CPU allocation                                     F (U)
 DBCSR| Number of 3D layers                                               SINGLE (U)
 DBCSR| Use MPI memory allocation                                              F (U)
 DBCSR| Use RMA algorithm                                                      F (U)
 DBCSR| Use Communication thread                                               T (U)
 DBCSR| Communication thread load                                             87 (D)
 DBCSR| MPI: My process id                                                     0
 DBCSR| MPI: Number of processes                                             128
 DBCSR| OMP: Current number of threads                                         1
 DBCSR| OMP: Max number of threads                                             1
 DBCSR| Split modifier for TAS multiplication algorithm                  1.0E+00 (U)


  **** **** ******  **  PROGRAM STARTED AT               2023-02-06 16:49:21.041
 ***** ** ***  *** **   PROGRAM STARTED ON                             nid001543
 **    ****   ******    PROGRAM STARTED BY                                cahart
 ***** **    ** ** **   PROGRAM PROCESS ID                                 51682
  **** **  *******  **  PROGRAM STARTED IN /mnt/lustre/a2fs-work2/work/e05/e05/c
                                           ahart/postdoc/masters/ni/archer2/bulk
                                           /optimise/multiplicity-65-magnetizati
                                           on/search/5.0E-01_1.0E-1

 CP2K| version string:                                       CP2K version 2023.1
 CP2K| source code revision number:                                  git:b888bd8
 CP2K| cp2kflags: omp libint fftw3 libxc elpa parallel scalapack xsmm plumed2 mk
 CP2K|            l
 CP2K| is freely available from                            https://www.cp2k.org/
 CP2K| Program compiled at                          Tue Jan 24 12:43:13 GMT 2023
 CP2K| Program compiled on                                                  ln03
 CP2K| Program compiled for                                              ARCHER2
 CP2K| Data directory path    /mnt/lustre/a2fs-work1/work/y07/shared/apps/core/c
 CP2K| Input file name                                                  cp2k.inp

 GLOBAL| Force Environment number                                              1
 GLOBAL| Basis set file name                                        BASIS_MOLOPT
 GLOBAL| Potential file name                                      GTH_POTENTIALS
 GLOBAL| MM Potential file name                                     MM_POTENTIAL
 GLOBAL| Coordinate file name                                      __STD_INPUT__
 GLOBAL| Method name                                                        CP2K
 GLOBAL| Project name                                                    Ni_bulk
 GLOBAL| Run type                                                         ENERGY
 GLOBAL| FFT library                                                       FFTW3
 GLOBAL| Diagonalization library                                            ELPA
 GLOBAL| DGEMM library                                                      BLAS
 GLOBAL| Minimum number of eigenvectors for ELPA usage                        16
 GLOBAL| Orthonormality check for eigenvectors                          DISABLED
 GLOBAL| Matrix multiplication library                                 ScaLAPACK
 GLOBAL| All-to-all communication in single precision                          F
 GLOBAL| FFTs using library dependent lengths                                  F
 GLOBAL| Grid backend                                                       AUTO
 GLOBAL| Global print level                                               MEDIUM
 GLOBAL| MPI I/O enabled                                                       T
 GLOBAL| Total number of message passing processes                           128
 GLOBAL| Number of threads for this process                                    1
 GLOBAL| This output is from process                                           0
 GLOBAL| Stack size for threads created by OpenMP (OMP_STACKSIZE)        default
 GLOBAL| CPU model name                          AMD EPYC 7742 64-Core Processor
 GLOBAL| CPUID                                                              1002

 MEMORY| system memory details [Kb]
 MEMORY|                        rank 0           min           max       average
 MEMORY| MemTotal            263528068     263528068     263528068     263528068
 MEMORY| MemFree             242949280     242949280     242949280     242949280
 MEMORY| Buffers                 28852         28852         28852         28852
 MEMORY| Cached                 590704        590704        590704        590704
 MEMORY| Slab                  1380176       1380176       1380176       1380176
 MEMORY| SReclaimable            84712         84712         84712         84712
 MEMORY| MemLikelyFree       243653548     243653548     243653548     243653548


 *** Fundamental physical constants (SI units) ***

 *** Literature: B. J. Mohr and B. N. Taylor,
 ***             CODATA recommended values of the fundamental physical
 ***             constants: 2006, Web Version 5.1
 ***             http://physics.nist.gov/constants

 Speed of light in vacuum [m/s]                             2.99792458000000E+08
 Magnetic constant or permeability of vacuum [N/A**2]       1.25663706143592E-06
 Electric constant or permittivity of vacuum [F/m]          8.85418781762039E-12
 Planck constant (h) [J*s]                                  6.62606896000000E-34
 Planck constant (h-bar) [J*s]                              1.05457162825177E-34
 Elementary charge [C]                                      1.60217648700000E-19
 Electron mass [kg]                                         9.10938215000000E-31
 Electron g factor [ ]                                     -2.00231930436220E+00
 Proton mass [kg]                                           1.67262163700000E-27
 Fine-structure constant                                    7.29735253760000E-03
 Rydberg constant [1/m]                                     1.09737315685270E+07
 Avogadro constant [1/mol]                                  6.02214179000000E+23
 Boltzmann constant [J/K]                                   1.38065040000000E-23
 Atomic mass unit [kg]                                      1.66053878200000E-27
 Bohr radius [m]                                            5.29177208590000E-11

 *** Conversion factors ***

 [u] -> [a.u.]                                              1.82288848426455E+03
 [Angstrom] -> [Bohr] = [a.u.]                              1.88972613288564E+00
 [a.u.] = [Bohr] -> [Angstrom]                              5.29177208590000E-01
 [a.u.] -> [s]                                              2.41888432650478E-17
 [a.u.] -> [fs]                                             2.41888432650478E-02
 [a.u.] -> [J]                                              4.35974393937059E-18
 [a.u.] -> [N]                                              8.23872205491840E-08
 [a.u.] -> [K]                                              3.15774647902944E+05
 [a.u.] -> [kJ/mol]                                         2.62549961709828E+03
 [a.u.] -> [kcal/mol]                                       6.27509468713739E+02
 [a.u.] -> [Pa]                                             2.94210107994716E+13
 [a.u.] -> [bar]                                            2.94210107994716E+08
 [a.u.] -> [atm]                                            2.90362800883016E+08
 [a.u.] -> [eV]                                             2.72113838565563E+01
 [a.u.] -> [Hz]                                             6.57968392072181E+15
 [a.u.] -> [1/cm] (wave numbers)                            2.19474631370540E+05
 [a.u./Bohr**2] -> [1/cm]                                   5.14048714338585E+03
 

 CELL_TOP| Volume [angstrom^3]:                                       344.707437
 CELL_TOP| Vector a [angstrom     7.012     0.000     0.000   |a| =     7.011596
 CELL_TOP| Vector b [angstrom     0.000     7.012     0.000   |b| =     7.011596
 CELL_TOP| Vector c [angstrom     0.000     0.000     7.012   |c| =     7.011596
 CELL_TOP| Angle (b,c), alpha [degree]:                                90.000000
 CELL_TOP| Angle (a,c), beta  [degree]:                                90.000000
 CELL_TOP| Angle (a,b), gamma [degree]:                                90.000000
 CELL_TOP| Numerically orthorhombic:                                         YES
 CELL_TOP| Periodicity                                                       XYZ

 CELL_UC| Volume [angstrom^3]:                                         43.088430
 CELL_UC| Vector a [angstrom]     3.506     0.000     0.000   |a| =     3.505798
 CELL_UC| Vector b [angstrom]     0.000     3.506     0.000   |b| =     3.505798
 CELL_UC| Vector c [angstrom]     0.000     0.000     3.506   |c| =     3.505798
 CELL_UC| Angle (b,c), alpha [degree]:                                 90.000000
 CELL_UC| Angle (a,c), beta  [degree]:                                 90.000000
 CELL_UC| Angle (a,b), gamma [degree]:                                 90.000000
 CELL_UC| Numerically orthorhombic:                                          YES
 CELL_UC| Periodicity                                                        XYZ

 GENERATE|  Preliminary Number of Bonds generated:                             0
 GENERATE|  Achieved consistency in connectivity generation.

 CELL| Volume [angstrom^3]:                                           344.707437
 CELL| Vector a [angstrom]:       7.012     0.000     0.000   |a| =     7.011596
 CELL| Vector b [angstrom]:       0.000     7.012     0.000   |b| =     7.011596
 CELL| Vector c [angstrom]:       0.000     0.000     7.012   |c| =     7.011596
 CELL| Angle (b,c), alpha [degree]:                                    90.000000
 CELL| Angle (a,c), beta  [degree]:                                    90.000000
 CELL| Angle (a,b), gamma [degree]:                                    90.000000
 CELL| Numerically orthorhombic:                                             YES
 CELL| Periodicity                                                           XYZ

 CELL_REF| Volume [angstrom^3]:                                       344.707437
 CELL_REF| Vector a [angstrom     7.012     0.000     0.000   |a| =     7.011596
 CELL_REF| Vector b [angstrom     0.000     7.012     0.000   |b| =     7.011596
 CELL_REF| Vector c [angstrom     0.000     0.000     7.012   |c| =     7.011596
 CELL_REF| Angle (b,c), alpha [degree]:                                90.000000
 CELL_REF| Angle (a,c), beta  [degree]:                                90.000000
 CELL_REF| Angle (a,b), gamma [degree]:                                90.000000
 CELL_REF| Numerically orthorhombic:                                         YES
 CELL_REF| Periodicity                                                       XYZ

 *******************************************************************************
 *******************************************************************************
 **                                                                           **
 **     #####                         ##              ##                      **
 **    ##   ##            ##          ##              ##                      **
 **   ##     ##                       ##            ######                    **
 **   ##     ##  ##   ##  ##   #####  ##  ##   ####   ##    #####    #####    **
 **   ##     ##  ##   ##  ##  ##      ## ##   ##      ##   ##   ##  ##   ##   **
 **   ##  ## ##  ##   ##  ##  ##      ####     ###    ##   ######   ######    **
 **    ##  ###   ##   ##  ##  ##      ## ##      ##   ##   ##       ##        **
 **     #######   #####   ##   #####  ##  ##  ####    ##    #####   ##        **
 **           ##                                                    ##        **
 **                                                                           **
 **                                                ... make the atoms dance   **
 **                                                                           **
 **            Copyright (C) by CP2K developers group (2000-2022)             **
 **                      J. Chem. Phys. 152, 194103 (2020)                    **
 **                                                                           **
 *******************************************************************************

 *** WARNING in qs_environment.F:1470 :: More ADDED_MOs requested for beta ***
 *** spin than available.                                                  ***


 *** WARNING in qs_environment.F:1486 :: More added MOs requested than     ***
 *** available. The full set of unoccupied MOs will be used. Use           ***
 *** 'ADDED_MOS -1' to always use all available MOs and to get rid of this ***
 *** warning.                                                              ***


 DFT| Spin unrestricted (spin-polarized) Kohn-Sham calculation               UKS
 DFT| Multiplicity                                                            65
 DFT| Number of spin states                                                    2
 DFT| Charge                                                                   0
 DFT| Self-interaction correction (SIC)                                       NO
 DFT| Cutoffs: density                                              1.000000E-10
 DFT|          gradient                                             1.000000E-10
 DFT|          tau                                                  1.000000E-10
 DFT|          cutoff_smoothing_range                               0.000000E+00
 DFT| XC density smoothing                                                  NONE
 DFT| XC derivatives                                                          PW

 FUNCTIONAL| PBE:
 FUNCTIONAL| J.P.Perdew, K.Burke, M.Ernzerhof, Phys. Rev. Letter, vol. 77, n 18,
 FUNCTIONAL|  pp. 3865-3868, (1996){spin polarized}                             


 QS| Method:                                                                 GPW
 QS| Density plane wave grid type                        NON-SPHERICAL FULLSPACE
 QS| Number of grid levels:                                                    5
 QS| Density cutoff [a.u.]:                                                300.0
 QS| Multi grid cutoff [a.u.]: 1) grid level                               300.0
 QS|                           2) grid level                               100.0
 QS|                           3) grid level                                33.3
 QS|                           4) grid level                                11.1
 QS|                           5) grid level                                 3.7
 QS| Grid level progression factor:                                          3.0
 QS| Relative density cutoff [a.u.]:                                        30.0
 QS| Interaction thresholds: eps_pgf_orb:                                1.0E-06
 QS|                         eps_filter_matrix:                          0.0E+00
 QS|                         eps_core_charge:                            1.0E-14
 QS|                         eps_rho_gspace:                             1.0E-12
 QS|                         eps_rho_rspace:                             1.0E-12
 QS|                         eps_gvg_rspace:                             1.0E-06
 QS|                         eps_ppl:                                    1.0E-02
 QS|                         eps_ppnl:                                   1.0E-08


 ATOMIC KIND INFORMATION

  1. Atomic kind: Ni                                    Number of atoms:      32

     Orbital Basis Set                                        DZVP-MOLOPT-SR-GTH

       Number of orbital shell sets:                                           1
       Number of orbital shells:                                               8
       Number of primitive Cartesian functions:                                6
       Number of Cartesian basis functions:                                   31
       Number of spherical basis functions:                                   26
       Norm type:                                                              2

       Normalised Cartesian orbitals:

                        Set   Shell   Orbital            Exponent    Coefficient

                          1       1    2s               10.077428      -0.684558
                                                         5.847736      -0.844524
                                                         2.494033       1.088856
                                                         0.988355       0.395503
                                                         0.344978       0.010224
                                                         0.099466      -0.003250

                          1       2    3s               10.077428       0.096747
                                                         5.847736       0.162504
                                                         2.494033      -0.297192
                                                         0.988355      -0.319752
                                                         0.344978       0.088318
                                                         0.099466       0.118587

                          1       3    4s               10.077428       0.036437
                                                         5.847736      -0.381480
                                                         2.494033       0.003759
                                                         0.988355      -1.048256
                                                         0.344978       0.855825
                                                         0.099466      -0.176350

                          1       4    3px              10.077428      -3.133913
                                                         5.847736       3.027656
                                                         2.494033       2.353227
                                                         0.988355       0.554184
                                                         0.344978       0.019462
                                                         0.099466      -0.000291
                          1       4    3py              10.077428      -3.133913
                                                         5.847736       3.027656
                                                         2.494033       2.353227
                                                         0.988355       0.554184
                                                         0.344978       0.019462
                                                         0.099466      -0.000291
                          1       4    3pz              10.077428      -3.133913
                                                         5.847736       3.027656
                                                         2.494033       2.353227
                                                         0.988355       0.554184
                                                         0.344978       0.019462
                                                         0.099466      -0.000291

                          1       5    4px              10.077428      -0.112729
                                                         5.847736      -0.114008
                                                         2.494033      -0.347303
                                                         0.988355      -0.110323
                                                         0.344978       0.154096
                                                         0.099466       0.058386
                          1       5    4py              10.077428      -0.112729
                                                         5.847736      -0.114008
                                                         2.494033      -0.347303
                                                         0.988355      -0.110323
                                                         0.344978       0.154096
                                                         0.099466       0.058386
                          1       5    4pz              10.077428      -0.112729
                                                         5.847736      -0.114008
                                                         2.494033      -0.347303
                                                         0.988355      -0.110323
                                                         0.344978       0.154096
                                                         0.099466       0.058386

                          1       6    4dx2             10.077428       8.232726
                                                         5.847736       9.105758
                                                         2.494033       2.849835
                                                         0.988355       0.554319
                                                         0.344978       0.067245
                                                         0.099466       0.001940
                          1       6    4dxy             10.077428      14.259500
                                                         5.847736      15.771636
                                                         2.494033       4.936060
                                                         0.988355       0.960109
                                                         0.344978       0.116472
                                                         0.099466       0.003360
                          1       6    4dxz             10.077428      14.259500
                                                         5.847736      15.771636
                                                         2.494033       4.936060
                                                         0.988355       0.960109
                                                         0.344978       0.116472
                                                         0.099466       0.003360
                          1       6    4dy2             10.077428       8.232726
                                                         5.847736       9.105758
                                                         2.494033       2.849835
                                                         0.988355       0.554319
                                                         0.344978       0.067245
                                                         0.099466       0.001940
                          1       6    4dyz             10.077428      14.259500
                                                         5.847736      15.771636
                                                         2.494033       4.936060
                                                         0.988355       0.960109
                                                         0.344978       0.116472
                                                         0.099466       0.003360
                          1       6    4dz2             10.077428       8.232726
                                                         5.847736       9.105758
                                                         2.494033       2.849835
                                                         0.988355       0.554319
                                                         0.344978       0.067245
                                                         0.099466       0.001940

                          1       7    5dx2             10.077428      -2.715373
                                                         5.847736      -4.020640
                                                         2.494033      -1.397569
                                                         0.988355      -0.076143
                                                         0.344978       0.033435
                                                         0.099466       0.026032
                          1       7    5dxy             10.077428      -4.703164
                                                         5.847736      -6.963952
                                                         2.494033      -2.420661
                                                         0.988355      -0.131883
                                                         0.344978       0.057911
                                                         0.099466       0.045088
                          1       7    5dxz             10.077428      -4.703164
                                                         5.847736      -6.963952
                                                         2.494033      -2.420661
                                                         0.988355      -0.131883
                                                         0.344978       0.057911
                                                         0.099466       0.045088
                          1       7    5dy2             10.077428      -2.715373
                                                         5.847736      -4.020640
                                                         2.494033      -1.397569
                                                         0.988355      -0.076143
                                                         0.344978       0.033435
                                                         0.099466       0.026032
                          1       7    5dyz             10.077428      -4.703164
                                                         5.847736      -6.963952
                                                         2.494033      -2.420661
                                                         0.988355      -0.131883
                                                         0.344978       0.057911
                                                         0.099466       0.045088
                          1       7    5dz2             10.077428      -2.715373
                                                         5.847736      -4.020640
                                                         2.494033      -1.397569
                                                         0.988355      -0.076143
                                                         0.344978       0.033435
                                                         0.099466       0.026032

                          1       8    5fx3             10.077428      -0.467694
                                                         5.847736       0.618100
                                                         2.494033       0.066069
                                                         0.988355       0.262898
                                                         0.344978       0.004720
                                                         0.099466       0.007748
                          1       8    5fx2y            10.077428      -1.045795
                                                         5.847736       1.382114
                                                         2.494033       0.147734
                                                         0.988355       0.587859
                                                         0.344978       0.010555
                                                         0.099466       0.017325
                          1       8    5fx2z            10.077428      -1.045795
                                                         5.847736       1.382114
                                                         2.494033       0.147734
                                                         0.988355       0.587859
                                                         0.344978       0.010555
                                                         0.099466       0.017325
                          1       8    5fxy2            10.077428      -1.045795
                                                         5.847736       1.382114
                                                         2.494033       0.147734
                                                         0.988355       0.587859
                                                         0.344978       0.010555
                                                         0.099466       0.017325
                          1       8    5fxyz            10.077428      -1.811371
                                                         5.847736       2.393892
                                                         2.494033       0.255883
                                                         0.988355       1.018201
                                                         0.344978       0.018282
                                                         0.099466       0.030008
                          1       8    5fxz2            10.077428      -1.045795
                                                         5.847736       1.382114
                                                         2.494033       0.147734
                                                         0.988355       0.587859
                                                         0.344978       0.010555
                                                         0.099466       0.017325
                          1       8    5fy3             10.077428      -0.467694
                                                         5.847736       0.618100
                                                         2.494033       0.066069
                                                         0.988355       0.262898
                                                         0.344978       0.004720
                                                         0.099466       0.007748
                          1       8    5fy2z            10.077428      -1.045795
                                                         5.847736       1.382114
                                                         2.494033       0.147734
                                                         0.988355       0.587859
                                                         0.344978       0.010555
                                                         0.099466       0.017325
                          1       8    5fyz2            10.077428      -1.045795
                                                         5.847736       1.382114
                                                         2.494033       0.147734
                                                         0.988355       0.587859
                                                         0.344978       0.010555
                                                         0.099466       0.017325
                          1       8    5fz3             10.077428      -0.467694
                                                         5.847736       0.618100
                                                         2.494033       0.066069
                                                         0.988355       0.262898
                                                         0.344978       0.004720
                                                         0.099466       0.007748

       Atomic covalent radius [Angstrom]:                                  1.150

       Atomic van der Waals radius [Angstrom]:                             1.630

     GTH Potential information for                                   GTH-PBE-q18

       Description:                       Goedecker-Teter-Hutter pseudopotential
                                           Goedecker et al., PRB 54, 1703 (1996)
                                          Hartwigsen et al., PRB 58, 3641 (1998)
                                                      Krack, TCA 114, 145 (2005)

       Gaussian exponent of the core charge distribution:               4.081633
       Electronic configuration (s p d ...):                           4   6   8

       Parameters of the local part of the GTH pseudopotential:

                          rloc        C1          C2          C3          C4
                        0.350000    2.102166    0.648484

       Parameters of the non-local part of the GTH pseudopotential:

                   l      r(l)      h(i,j,l)

                   0    0.261295    0.622658    9.970227
                                    9.970227  -12.871507
                   1    0.224253  -11.142708   12.429566
                                   12.429566  -14.706861
                   2    0.215348  -12.628146


 MOLECULE KIND INFORMATION


 All atoms are their own molecule, skipping detailed information


 TOTAL NUMBERS AND MAXIMUM NUMBERS

  Total number of            - Atomic kinds:                                   1
                             - Atoms:                                         32
                             - Shell sets:                                    32
                             - Shells:                                       256
                             - Primitive Cartesian functions:                192
                             - Cartesian basis functions:                    992
                             - Spherical basis functions:                    832

  Maximum angular momentum of- Orbital basis functions:                        3
                             - Local part of the GTH pseudopotential:          2
                             - Non-local part of the GTH pseudopotential:      3


 MODULE QUICKSTEP: ATOMIC COORDINATES IN ANGSTROM

   Atom Kind Element         X             Y             Z       Z(eff)     Mass
      1    1 Ni   28      0.000000      0.000000      0.000000  18.0000  58.6934
      2    1 Ni   28      0.000000      1.752900      1.752900  18.0000  58.6934
      3    1 Ni   28      1.752900      0.000000      1.752900  18.0000  58.6934
      4    1 Ni   28      1.752900      1.752900      0.000000  18.0000  58.6934
      5    1 Ni   28      3.505798      0.000000      0.000000  18.0000  58.6934
      6    1 Ni   28      3.505798      1.752900      1.752900  18.0000  58.6934
      7    1 Ni   28      5.258698      0.000000      1.752900  18.0000  58.6934
      8    1 Ni   28      5.258698      1.752900      0.000000  18.0000  58.6934
      9    1 Ni   28      0.000000      3.505798      0.000000  18.0000  58.6934
     10    1 Ni   28      0.000000      5.258698      1.752900  18.0000  58.6934
     11    1 Ni   28      1.752900      3.505798      1.752900  18.0000  58.6934
     12    1 Ni   28      1.752900      5.258698      0.000000  18.0000  58.6934
     13    1 Ni   28      3.505798      3.505798      0.000000  18.0000  58.6934
     14    1 Ni   28      3.505798      5.258698      1.752900  18.0000  58.6934
     15    1 Ni   28      5.258698      3.505798      1.752900  18.0000  58.6934
     16    1 Ni   28      5.258698      5.258698      0.000000  18.0000  58.6934
     17    1 Ni   28      0.000000      0.000000      3.505798  18.0000  58.6934
     18    1 Ni   28      0.000000      1.752900      5.258698  18.0000  58.6934
     19    1 Ni   28      1.752900      0.000000      5.258698  18.0000  58.6934
     20    1 Ni   28      1.752900      1.752900      3.505798  18.0000  58.6934
     21    1 Ni   28      3.505798      0.000000      3.505798  18.0000  58.6934
     22    1 Ni   28      3.505798      1.752900      5.258698  18.0000  58.6934
     23    1 Ni   28      5.258698      0.000000      5.258698  18.0000  58.6934
     24    1 Ni   28      5.258698      1.752900      3.505798  18.0000  58.6934
     25    1 Ni   28      0.000000      3.505798      3.505798  18.0000  58.6934
     26    1 Ni   28      0.000000      5.258698      5.258698  18.0000  58.6934
     27    1 Ni   28      1.752900      3.505798      5.258698  18.0000  58.6934
     28    1 Ni   28      1.752900      5.258698      3.505798  18.0000  58.6934
     29    1 Ni   28      3.505798      3.505798      3.505798  18.0000  58.6934
     30    1 Ni   28      3.505798      5.258698      5.258698  18.0000  58.6934
     31    1 Ni   28      5.258698      3.505798      5.258698  18.0000  58.6934
     32    1 Ni   28      5.258698      5.258698      3.505798  18.0000  58.6934



 SCF PARAMETERS         Density guess:                                    ATOMIC
                        --------------------------------------------------------
                        max_scf:                                             500
                        max_scf_history:                                       0
                        max_diis:                                             10
                        --------------------------------------------------------
                        eps_scf:                                        1.00E-08
                        eps_scf_history:                                0.00E+00
                        eps_diis:                                       1.00E-01
                        eps_eigval:                                     1.00E-05
                        --------------------------------------------------------
                        level_shift [a.u.]:                             0.000000
                        added MOs                                       512  576
                        --------------------------------------------------------
                        Mixing method:                            BROYDEN_MIXING
                                                charge density mixing in g-space
                        --------------------------------------------------------
                        Smear method:                                FERMI_DIRAC
                        Electronic temperature [K]:                        500.0
                        Electronic temperature [a.u.]:                  1.58E-03
                        Accuracy threshold:                             1.00E-10
                        --------------------------------------------------------
                        No outer SCF

 PW_GRID| Information for grid number                                          1
 PW_GRID| Grid distributed over                                   128 processors
 PW_GRID| Real space group dimensions                                     8   16
 PW_GRID| the grid is blocked:                                               YES
 PW_GRID| Cutoff [a.u.]                                                    300.0
 PW_GRID| spherical cutoff:                                                   NO
 PW_GRID|   Bounds   1            -54      53                Points:         108
 PW_GRID|   Bounds   2            -54      53                Points:         108
 PW_GRID|   Bounds   3            -54      53                Points:         108
 PW_GRID| Volume element (a.u.^3)  0.1847E-02     Volume (a.u.^3)      2326.2011
 PW_GRID| Grid span                                                    FULLSPACE
 PW_GRID|   Distribution                         Average         Max         Min
 PW_GRID|   G-Vectors                             9841.5       10584        8424
 PW_GRID|   G-Rays                                  91.1          98          78
 PW_GRID|   Real Space Points                     9841.5       10584        8424

 PW_GRID| Information for grid number                                          2
 PW_GRID| Number of the reference grid                                         1
 PW_GRID| Grid distributed over                                   128 processors
 PW_GRID| Real space group dimensions                                     8   16
 PW_GRID| the grid is blocked:                                                NO
 PW_GRID| Cutoff [a.u.]                                                    100.0
 PW_GRID| spherical cutoff:                                                   NO
 PW_GRID|   Bounds   1            -30      29                Points:          60
 PW_GRID|   Bounds   2            -30      29                Points:          60
 PW_GRID|   Bounds   3            -30      29                Points:          60
 PW_GRID| Volume element (a.u.^3)  0.1077E-01     Volume (a.u.^3)      2326.2011
 PW_GRID| Grid span                                                    FULLSPACE
 PW_GRID|   Distribution                         Average         Max         Min
 PW_GRID|   G-Vectors                             1687.5        5880           0
 PW_GRID|   G-Rays                                  28.1          98           0
 PW_GRID|   Real Space Points                     1687.5        1920        1260

 PW_GRID| Information for grid number                                          3
 PW_GRID| Number of the reference grid                                         1
 PW_GRID| Grid distributed over                                   128 processors
 PW_GRID| Real space group dimensions                                     8   16
 PW_GRID| the grid is blocked:                                                NO
 PW_GRID| Cutoff [a.u.]                                                     33.3
 PW_GRID| spherical cutoff:                                                   NO
 PW_GRID|   Bounds   1            -18      17                Points:          36
 PW_GRID|   Bounds   2            -18      17                Points:          36
 PW_GRID|   Bounds   3            -18      17                Points:          36
 PW_GRID| Volume element (a.u.^3)  0.4986E-01     Volume (a.u.^3)      2326.2011
 PW_GRID| Grid span                                                    FULLSPACE
 PW_GRID|   Distribution                         Average         Max         Min
 PW_GRID|   G-Vectors                              364.5        3528           0
 PW_GRID|   G-Rays                                  10.1          98           0
 PW_GRID|   Real Space Points                      364.5         540         288

 PW_GRID| Information for grid number                                          4
 PW_GRID| Number of the reference grid                                         1
 PW_GRID| Grid distributed over                                   128 processors
 PW_GRID| Real space group dimensions                                     8   16
 PW_GRID| the grid is blocked:                                                NO
 PW_GRID| Cutoff [a.u.]                                                     11.1
 PW_GRID| spherical cutoff:                                                   NO
 PW_GRID|   Bounds   1            -10       9                Points:          20
 PW_GRID|   Bounds   2            -10       9                Points:          20
 PW_GRID|   Bounds   3            -10       9                Points:          20
 PW_GRID| Volume element (a.u.^3)  0.2908         Volume (a.u.^3)      2326.2011
 PW_GRID| Grid span                                                    FULLSPACE
 PW_GRID|   Distribution                         Average         Max         Min
 PW_GRID|   G-Vectors                               62.5        1400           0
 PW_GRID|   G-Rays                                   3.1          70           0
 PW_GRID|   Real Space Points                       62.5         120          40

 PW_GRID| Information for grid number                                          5
 PW_GRID| Number of the reference grid                                         1
 PW_GRID| Grid distributed over                                   128 processors
 PW_GRID| Real space group dimensions                                     8   16
 PW_GRID| the grid is blocked:                                                NO
 PW_GRID| Cutoff [a.u.]                                                      3.7
 PW_GRID| spherical cutoff:                                                   NO
 PW_GRID|   Bounds   1             -6       5                Points:          12
 PW_GRID|   Bounds   2             -6       5                Points:          12
 PW_GRID|   Bounds   3             -6       5                Points:          12
 PW_GRID| Volume element (a.u.^3)   1.346         Volume (a.u.^3)      2326.2011
 PW_GRID| Grid span                                                    FULLSPACE
 PW_GRID|   Distribution                         Average         Max         Min
 PW_GRID|   G-Vectors                               13.5         432           0
 PW_GRID|   G-Rays                                   1.1          36           0
 PW_GRID|   Real Space Points                       13.5          24           0

 POISSON| Solver                                                        PERIODIC
 POISSON| Periodicity                                                        XYZ

 RS_GRID| Information for grid number                                          1
 RS_GRID|   Bounds   1            -54      53                Points:         108
 RS_GRID|   Bounds   2            -54      53                Points:         108
 RS_GRID|   Bounds   3            -54      53                Points:         108
 RS_GRID| Real space distribution over                                  8 groups
 RS_GRID| Real space distribution along direction                              2
 RS_GRID| Border size                                                         28
 RS_GRID| Real space distribution over                                 16 groups
 RS_GRID| Real space distribution along direction                              3
 RS_GRID| Border size                                                         28
 RS_GRID|   Distribution                         Average         Max         Min
 RS_GRID|   Planes                                  69.5          70          69
 RS_GRID|   Distribution                         Average         Max         Min
 RS_GRID|   Planes                                  62.8          63          62

 RS_GRID| Information for grid number                                          2
 RS_GRID|   Bounds   1            -30      29                Points:          60
 RS_GRID|   Bounds   2            -30      29                Points:          60
 RS_GRID|   Bounds   3            -30      29                Points:          60
 RS_GRID| Real space fully replicated
 RS_GRID| Group size                                                           1

 RS_GRID| Information for grid number                                          3
 RS_GRID|   Bounds   1            -18      17                Points:          36
 RS_GRID|   Bounds   2            -18      17                Points:          36
 RS_GRID|   Bounds   3            -18      17                Points:          36
 RS_GRID| Real space fully replicated
 RS_GRID| Group size                                                           1

 RS_GRID| Information for grid number                                          4
 RS_GRID|   Bounds   1            -10       9                Points:          20
 RS_GRID|   Bounds   2            -10       9                Points:          20
 RS_GRID|   Bounds   3            -10       9                Points:          20
 RS_GRID| Real space fully replicated
 RS_GRID| Group size                                                           1

 RS_GRID| Information for grid number                                          5
 RS_GRID|   Bounds   1             -6       5                Points:          12
 RS_GRID|   Bounds   2             -6       5                Points:          12
 RS_GRID|   Bounds   3             -6       5                Points:          12
 RS_GRID| Real space fully replicated
 RS_GRID| Group size                                                           1

 Spin 1

 Number of electrons:                                                        320
 Number of occupied orbitals:                                                320
 Number of molecular orbitals:                                               832

 Spin 2

 Number of electrons:                                                        256
 Number of occupied orbitals:                                                256
 Number of molecular orbitals:                                               832

 Number of orbital functions:                                                832
 Number of independent orbital functions:                                    832

 Extrapolation method: initial_guess

 Atomic guess: The first density matrix is obtained in terms of atomic orbitals
               and electronic configurations assigned to each atomic kind

 Guess for atomic kind: Ni

 Electronic structure
    Total number of core electrons                                         10.00
    Total number of valence electrons                                      18.00
    Total number of electrons                                              28.00
    Multiplicity                                                         triplet
    Alpha Electrons
    S   [  1.00  1.00] 1.00  1.00
    P   [  3.00] 3.00
    D      5.00
    Beta Electrons
    S   [  1.00  1.00] 1.00  1.00
    P   [  3.00] 3.00
    D      3.00


 *******************************************************************************
                  Iteration          Convergence                     Energy [au]
 *******************************************************************************
                          1         1.61955                    -167.102733612646
                          2         17.9576                    -156.964728082342
                          3         2.81889                    -168.347679739779
                          4        0.300879                    -168.639029543130
                          5        0.133614                    -168.643718125190
                          6        0.642384E-01                -168.645928334381
                          7        0.411618E-01                -168.646613747745
                          8        0.978516E-02                -168.646711132537
                          9        0.508781E-01                -168.646571314898
                         10        0.138948E-01                -168.646700563277
                         11        0.138660E-01                -168.646700237384
                         12        0.629414E-02                -168.646712261956
                         13        0.566241E-02                -168.646713151996
                         14        0.495313E-02                -168.646714117454
                         15        0.421991E-02                -168.646714987798
                         16        0.338228E-02                -168.646715812720
                         17        0.416465E-02                -168.646716816326
                         18        0.344616E-02                -168.646717043212
                         19        0.330991E-02                -168.646717101846
                         20        0.313342E-02                -168.646717172930
                         21        0.281829E-02                -168.646717286496
                         22        0.848656E-03                -168.646717732580
                         23        0.109512E-02                -168.646717723740
                         24        0.104995E-02                -168.646717732012
                         25        0.102855E-02                -168.646717736906
                         26        0.100245E-02                -168.646717743176
                         27        0.676032E-03                -168.646717806927
                         28        0.602106E-03                -168.646717861030
                         29        0.625282E-03                -168.646717860099
                         30        0.624945E-03                -168.646717860052
                         31        0.623853E-03                -168.646717860100
                         32        0.624150E-03                -168.646717860067
                         33        0.237289E-03                -168.646717879062
                         34        0.180801E-03                -168.646717882280
                         35        0.181452E-03                -168.646717882256
                         36        0.181661E-03                -168.646717882245
                         37        0.181696E-03                -168.646717882243
                         38        0.180660E-03                -168.646717882285
                         39        0.167278E-03                -168.646717884960
                         40        0.108251E-03                -168.646717886084
                         41        0.108355E-03                -168.646717886083
                         42        0.108427E-03                -168.646717886083
                         43        0.108486E-03                -168.646717886083
                         44        0.108485E-03                -168.646717886083
                         45        0.694677E-04                -168.646717886478
                         46        0.318666E-04                -168.646717886752
                         47        0.318508E-04                -168.646717886753
                         48        0.318379E-04                -168.646717886753
                         49        0.318252E-04                -168.646717886753
                         50        0.320703E-04                -168.646717886751
 No convergence within maximum number of iterations 

 Energy components [Hartree]           Total Energy ::         -168.646717886751
                                        Band Energy ::          -26.584923955507
                                     Kinetic Energy ::           97.352330251814
                                   Potential Energy ::         -265.999048138565
                                      Virial (-V/T) ::            2.732333652934
                                        Core Energy ::         -299.595021414610
                                          XC Energy ::          -16.265210292971
                                     Coulomb Energy ::          147.213513820830
                       Total Pseudopotential Energy ::         -397.033695283644
                       Local Pseudopotential Energy ::         -362.697061997994
                    Nonlocal Pseudopotential Energy ::          -34.336633285650
                                        Confinement ::            0.863436172188

 Orbital energies  State     Spin  L     Occupation   Energy[a.u.]    Energy[eV]

                       1    alpha  0          1.000      -4.198782   -114.254674
                       2    alpha  0          1.000      -0.185813     -5.056229
                       1     beta  0          1.000      -4.107299   -111.765292
                       2     beta  0          1.000      -0.171331     -4.662162

                       1    alpha  1          3.000      -2.604156    -70.862688
                       1     beta  1          3.000      -2.515143    -68.440529

                       1    alpha  2          5.000      -0.348813     -9.491687
                       1     beta  2          3.000      -0.273245     -7.435375


 Total Electron Density at R=0:                                         0.030313

 Spin 1
 Re-scaling the density matrix to get the right number of electrons for spin 1
                  # Electrons              Trace(P)               Scaling factor
                          320               320.032                        1.000

 Spin 2
 Re-scaling the density matrix to get the right number of electrons for spin 2
                  # Electrons              Trace(P)               Scaling factor
                          256               256.035                        1.000


 SCF WAVEFUNCTION OPTIMIZATION

  Step     Update method      Time    Convergence         Total energy    Change
  ------------------------------------------------------------------------------
     1 NoMix/Diag. 0.50E+00    0.7     0.80945817     -5430.5035547420 -5.43E+03
     2 Broy./Diag. 0.50E+00    0.6     0.09227578     -5388.9501511892  4.16E+01
     3 Broy./Diag. 0.50E+00    0.6     0.06545362     -5466.8534313694 -7.79E+01
     4 Broy./Diag. 0.50E+00    0.6     0.00991824     -5419.1443943976  4.77E+01
     5 Broy./Diag. 0.50E+00    0.6     0.01123212     -5414.0179969717  5.13E+00
     6 Broy./Diag. 0.50E+00    0.6     0.00424778     -5419.9075284041 -5.89E+00
     7 Broy./Diag. 0.50E+00    0.6     0.00791789     -5418.3200541679  1.59E+00
     8 Broy./Diag. 0.50E+00    0.6     0.00185116     -5418.0565670022  2.63E-01
     9 Broy./Diag. 0.50E+00    0.6     0.00038940     -5417.7964898197  2.60E-01
    10 Broy./Diag. 0.50E+00    0.6     0.00035484     -5417.8205747067 -2.41E-02
    11 Broy./Diag. 0.50E+00    0.6     0.00011439     -5417.8254595132 -4.88E-03
    12 Broy./Diag. 0.50E+00    0.6     0.00001897     -5417.8335728886 -8.11E-03
    13 Broy./Diag. 0.50E+00    0.6     0.00001320     -5417.8327786370  7.94E-04
    14 Broy./Diag. 0.50E+00    0.6     0.00000742     -5417.8333148483 -5.36E-04
    15 Broy./Diag. 0.50E+00    0.6     0.00000979     -5417.8329063193  4.09E-04
    16 Broy./Diag. 0.50E+00    0.6     0.00000995     -5417.8324484164  4.58E-04
    17 Broy./Diag. 0.50E+00    0.6     0.00000733     -5417.8323011380  1.47E-04
    18 Broy./Diag. 0.50E+00    0.6     0.00000651     -5417.8322907593  1.04E-05
    19 Broy./Diag. 0.50E+00    0.6     0.00000276     -5417.8322809960  9.76E-06
    20 Broy./Diag. 0.50E+00    0.6     0.00000330     -5417.8323007269 -1.97E-05
    21 Broy./Diag. 0.50E+00    0.6     0.00000276     -5417.8322965305  4.20E-06
    22 Broy./Diag. 0.50E+00    0.6     0.00000156     -5417.8322670558  2.95E-05
    23 Broy./Diag. 0.50E+00    0.6     0.00000142     -5417.8322720942 -5.04E-06
    24 Broy./Diag. 0.50E+00    0.6     0.00000025     -5417.8322787238 -6.63E-06
    25 Broy./Diag. 0.50E+00    0.6     0.00000025     -5417.8322617818  1.69E-05
    26 Broy./Diag. 0.50E+00    0.6     0.00000027     -5417.8322681149 -6.33E-06
    27 Broy./Diag. 0.50E+00    0.6     0.00000020     -5417.8322737486 -5.63E-06
    28 Broy./Diag. 0.50E+00    0.6     0.00000023     -5417.8322753172 -1.57E-06
    29 Broy./Diag. 0.50E+00    0.6     0.00000030     -5417.8322747129  6.04E-07
    30 Broy./Diag. 0.50E+00    0.6     0.00000056     -5417.8322691236  5.59E-06
    31 Broy./Diag. 0.50E+00    0.6     0.00000067     -5417.8322672638  1.86E-06
    32 Broy./Diag. 0.50E+00    0.6     0.00000075     -5417.8322727332 -5.47E-06
    33 Broy./Diag. 0.50E+00    0.6     0.00000057     -5417.8322744194 -1.69E-06
    34 Broy./Diag. 0.50E+00    0.6     0.00000047     -5417.8322734092  1.01E-06
    35 Broy./Diag. 0.50E+00    0.6     0.00000025     -5417.8322740745 -6.65E-07
    36 Broy./Diag. 0.50E+00    0.6     0.00000023     -5417.8322706260  3.45E-06
    37 Broy./Diag. 0.50E+00    0.6     0.00000040     -5417.8322715681 -9.42E-07
    38 Broy./Diag. 0.50E+00    0.6     0.00000022     -5417.8322721083 -5.40E-07
    39 Broy./Diag. 0.50E+00    0.6     0.00000081     -5417.8322729314 -8.23E-07
    40 Broy./Diag. 0.50E+00    0.6     0.00000063     -5417.8322736739 -7.42E-07
    41 Broy./Diag. 0.50E+00    0.6     0.00000024     -5417.8322737887 -1.15E-07
    42 Broy./Diag. 0.50E+00    0.6     0.00000038     -5417.8322735131  2.76E-07
    43 Broy./Diag. 0.50E+00    0.6     0.00000134     -5417.8322735717 -5.86E-08
    44 Broy./Diag. 0.50E+00    0.6     0.00000220     -5417.8322733009  2.71E-07
    45 Broy./Diag. 0.50E+00    0.6     0.00000065     -5417.8322731809  1.20E-07
    46 Broy./Diag. 0.50E+00    0.6     0.00000184     -5417.8322726425  5.38E-07
    47 Broy./Diag. 0.50E+00    0.6     0.00000139     -5417.8322730064 -3.64E-07
    48 Broy./Diag. 0.50E+00    0.6     0.00000110     -5417.8322729421  6.43E-08
    49 Broy./Diag. 0.50E+00    0.6     0.00000103     -5417.8322723417  6.00E-07
    50 Broy./Diag. 0.50E+00    0.6     0.00000074     -5417.8322725735 -2.32E-07
    51 Broy./Diag. 0.50E+00    0.6     0.00000066     -5417.8322727890 -2.15E-07
    52 Broy./Diag. 0.50E+00    0.6     0.00000069     -5417.8322728132 -2.42E-08
    53 Broy./Diag. 0.50E+00    0.6     0.00000300     -5417.8322722419  5.71E-07
    54 Broy./Diag. 0.50E+00    0.6     0.00000347     -5417.8322722889 -4.70E-08
    55 Broy./Diag. 0.50E+00    0.6     0.00000362     -5417.8322724351 -1.46E-07
    56 Broy./Diag. 0.50E+00    0.6     0.00000376     -5417.8322733890 -9.54E-07
    57 Broy./Diag. 0.50E+00    0.6     0.00000202     -5417.8322731963  1.93E-07
    58 Broy./Diag. 0.50E+00    0.6     0.00000406     -5417.8322724070  7.89E-07
    59 Broy./Diag. 0.50E+00    0.6     0.00000616     -5417.8322721854  2.22E-07
    60 Broy./Diag. 0.50E+00    0.6     0.00000618     -5417.8322721062  7.92E-08
    61 Broy./Diag. 0.50E+00    0.6     0.00000353     -5417.8322722920 -1.86E-07
    62 Broy./Diag. 0.50E+00    0.6     0.00000356     -5417.8322724711 -1.79E-07
    63 Broy./Diag. 0.50E+00    0.6     0.00000314     -5417.8322729381 -4.67E-07
    64 Broy./Diag. 0.50E+00    0.6     0.00000235     -5417.8322729343  3.81E-09
    65 Broy./Diag. 0.50E+00    0.6     0.00000243     -5417.8322728557  7.86E-08
    66 Broy./Diag. 0.50E+00    0.6     0.00000301     -5417.8322726253  2.30E-07
    67 Broy./Diag. 0.50E+00    0.6     0.00000154     -5417.8322724859  1.39E-07
    68 Broy./Diag. 0.50E+00    0.6     0.00000110     -5417.8322724556  3.03E-08
    69 Broy./Diag. 0.50E+00    0.6     0.00000133     -5417.8322725081 -5.25E-08
    70 Broy./Diag. 0.50E+00    0.6     0.00000125     -5417.8322725907 -8.26E-08
    71 Broy./Diag. 0.50E+00    0.6     0.00000083     -5417.8322726851 -9.44E-08
    72 Broy./Diag. 0.50E+00    0.6     0.00000087     -5417.8322726728  1.23E-08
    73 Broy./Diag. 0.50E+00    0.6     0.00000092     -5417.8322725907  8.21E-08
    74 Broy./Diag. 0.50E+00    0.6     0.00000041     -5417.8322725111  7.96E-08
    75 Broy./Diag. 0.50E+00    0.6     0.00000049     -5417.8322724827  2.83E-08
    76 Broy./Diag. 0.50E+00    0.6     0.00000094     -5417.8322725611 -7.83E-08
    77 Broy./Diag. 0.50E+00    0.6     0.00000100     -5417.8322726630 -1.02E-07
    78 Broy./Diag. 0.50E+00    0.6     0.00000048     -5417.8322726120  5.10E-08
    79 Broy./Diag. 0.50E+00    0.6     0.00000047     -5417.8322725918  2.02E-08
    80 Broy./Diag. 0.50E+00    0.6     0.00000068     -5417.8322725767  1.51E-08
    81 Broy./Diag. 0.50E+00    0.6     0.00000169     -5417.8322725287  4.79E-08
    82 Broy./Diag. 0.50E+00    0.6     0.00000108     -5417.8322725785 -4.97E-08
    83 Broy./Diag. 0.50E+00    0.6     0.00000137     -5417.8322726100 -3.16E-08
    84 Broy./Diag. 0.50E+00    0.6     0.00000122     -5417.8322726083  1.77E-09
    85 Broy./Diag. 0.50E+00    0.6     0.00000099     -5417.8322725446  6.37E-08
    86 Broy./Diag. 0.50E+00    0.6     0.00000079     -5417.8322725674 -2.28E-08
    87 Broy./Diag. 0.50E+00    0.6     0.00000097     -5417.8322725773 -9.98E-09
    88 Broy./Diag. 0.50E+00    0.6     0.00000091     -5417.8322725831 -5.80E-09
    89 Broy./Diag. 0.50E+00    0.6     0.00000111     -5417.8322725873 -4.11E-09
    90 Broy./Diag. 0.50E+00    0.6     0.00000146     -5417.8322725881 -8.85E-10
    91 Broy./Diag. 0.50E+00    0.6     0.00000131     -5417.8322725993 -1.11E-08
    92 Broy./Diag. 0.50E+00    0.6     0.00000092     -5417.8322725944  4.90E-09
    93 Broy./Diag. 0.50E+00    0.6     0.00000123     -5417.8322725819  1.25E-08
    94 Broy./Diag. 0.50E+00    0.6     0.00000108     -5417.8322725767  5.18E-09
    95 Broy./Diag. 0.50E+00    0.6     0.00000078     -5417.8322725798 -3.11E-09
    96 Broy./Diag. 0.50E+00    0.6     0.00000079     -5417.8322725874 -7.60E-09
    97 Broy./Diag. 0.50E+00    0.6     0.00000057     -5417.8322725911 -3.71E-09
    98 Broy./Diag. 0.50E+00    0.6     0.00000044     -5417.8322725922 -1.01E-09
    99 Broy./Diag. 0.50E+00    0.6     0.00000053     -5417.8322725887  3.44E-09
   100 Broy./Diag. 0.50E+00    0.6     0.00000030     -5417.8322725871  1.58E-09
   101 Broy./Diag. 0.50E+00    0.6     0.00000041     -5417.8322725859  1.25E-09
   102 Broy./Diag. 0.50E+00    0.6     0.00000030     -5417.8322725844  1.50E-09
   103 Broy./Diag. 0.50E+00    0.6     0.00000062     -5417.8322725836  7.36E-10
   104 Broy./Diag. 0.50E+00    0.6     0.00000068     -5417.8322725857 -2.11E-09
   105 Broy./Diag. 0.50E+00    0.6     0.00000024     -5417.8322725882 -2.49E-09
   106 Broy./Diag. 0.50E+00    0.6     0.00000038     -5417.8322725895 -1.29E-09
   107 Broy./Diag. 0.50E+00    0.6     0.00000043     -5417.8322725884  1.14E-09
   108 Broy./Diag. 0.50E+00    0.6     0.00000032     -5417.8322725877  6.97E-10
   109 Broy./Diag. 0.50E+00    0.6     0.00000043     -5417.8322725871  6.18E-10
   110 Broy./Diag. 0.50E+00    0.6     0.00000027     -5417.8322725867  3.78E-10
   111 Broy./Diag. 0.50E+00    0.6     0.00000036     -5417.8322725873 -6.49E-10
   112 Broy./Diag. 0.50E+00    0.6     0.00000027     -5417.8322725891 -1.74E-09
   113 Broy./Diag. 0.50E+00    0.6     0.00000254     -5417.8322725885  5.68E-10
   114 Broy./Diag. 0.50E+00    0.6     0.00000311     -5417.8322725894 -9.07E-10
   115 Broy./Diag. 0.50E+00    0.6     0.00000112     -5417.8322725883  1.07E-09
   116 Broy./Diag. 0.50E+00    0.6     0.00000131     -5417.8322725864  1.95E-09
   117 Broy./Diag. 0.50E+00    0.6     0.00000211     -5417.8322725852  1.18E-09
   118 Broy./Diag. 0.50E+00    0.6     0.00000177     -5417.8322725852 -1.82E-11
   119 Broy./Diag. 0.50E+00    0.6     0.00000096     -5417.8322725867 -1.51E-09
   120 Broy./Diag. 0.50E+00    0.6     0.00000217     -5417.8322725893 -2.57E-09
   121 Broy./Diag. 0.50E+00    0.6     0.00000266     -5417.8322725873  1.97E-09
   122 Broy./Diag. 0.50E+00    0.6     0.00000147     -5417.8322725873  7.46E-11
   123 Broy./Diag. 0.50E+00    0.6     0.00000624     -5417.8322725877 -4.08E-10
   124 Broy./Diag. 0.50E+00    0.6     0.00000593     -5417.8322725884 -7.16E-10
   125 Broy./Diag. 0.50E+00    0.6     0.00000228     -5417.8322725874  9.95E-10
   126 Broy./Diag. 0.50E+00    0.6     0.00000241     -5417.8322725873  7.73E-11
   127 Broy./Diag. 0.50E+00    0.6     0.00000216     -5417.8322725875 -1.87E-10
   128 Broy./Diag. 0.50E+00    0.6     0.00000234     -5417.8322725875 -1.82E-12
   129 Broy./Diag. 0.50E+00    0.6     0.00000179     -5417.8322725875 -1.55E-11
   130 Broy./Diag. 0.50E+00    0.6     0.00000105     -5417.8322725874  1.10E-10
   131 Broy./Diag. 0.50E+00    0.6     0.00000145     -5417.8322725874  3.18E-11
   132 Broy./Diag. 0.50E+00    0.6     0.00000128     -5417.8322725874 -2.82E-11
   133 Broy./Diag. 0.50E+00    0.6     0.00000104     -5417.8322725875 -7.82E-11
   134 Broy./Diag. 0.50E+00    0.6     0.00000135     -5417.8322725873  1.55E-10
   135 Broy./Diag. 0.50E+00    0.6     0.00000118     -5417.8322725875 -1.24E-10
   136 Broy./Diag. 0.50E+00    0.6     0.00000077     -5417.8322725874  4.18E-11
   137 Broy./Diag. 0.50E+00    0.6     0.00000074     -5417.8322725874 -2.18E-11
   138 Broy./Diag. 0.50E+00    0.6     0.00000089     -5417.8322725874 -4.55E-12
   139 Broy./Diag. 0.50E+00    0.6     0.00000058     -5417.8322725874  5.00E-11
   140 Broy./Diag. 0.50E+00    0.6     0.00000058     -5417.8322725874  2.27E-11
   141 Broy./Diag. 0.50E+00    0.6     0.00000052     -5417.8322725874 -1.91E-11
   142 Broy./Diag. 0.50E+00    0.6     0.00000041     -5417.8322725874  1.27E-11
   143 Broy./Diag. 0.50E+00    0.6     0.00000054     -5417.8322725874  5.46E-12
   144 Broy./Diag. 0.50E+00    0.6     0.00000064     -5417.8322725874 -4.73E-11
   145 Broy./Diag. 0.50E+00    0.6     0.00000086     -5417.8322725873  1.04E-10
   146 Broy./Diag. 0.50E+00    0.6     0.00000079     -5417.8322725874 -1.24E-10
   147 Broy./Diag. 0.50E+00    0.6     0.00000044     -5417.8322725874  7.64E-11
   148 Broy./Diag. 0.50E+00    0.6     0.00000051     -5417.8322725874 -2.73E-12
   149 Broy./Diag. 0.50E+00    0.6     0.00000028     -5417.8322725874 -3.00E-11
   150 Broy./Diag. 0.50E+00    0.6     0.00000028     -5417.8322725874  1.00E-11
   151 Broy./Diag. 0.50E+00    0.6     0.00000040     -5417.8322725874  9.09E-13
   152 Broy./Diag. 0.50E+00    0.6     0.00000042     -5417.8322725874 -1.36E-11
   153 Broy./Diag. 0.50E+00    0.6     0.00000044     -5417.8322725874  4.55E-12
   154 Broy./Diag. 0.50E+00    0.6     0.00000066     -5417.8322725874  2.00E-11
   155 Broy./Diag. 0.50E+00    0.6     0.00000077     -5417.8322725874  2.18E-11
   156 Broy./Diag. 0.50E+00    0.6     0.00000104     -5417.8322725873  5.46E-12
   157 Broy./Diag. 0.50E+00    0.6     0.00000058     -5417.8322725874 -6.37E-12
   158 Broy./Diag. 0.50E+00    0.6     0.00000072     -5417.8322725874 -2.91E-11
   159 Broy./Diag. 0.50E+00    0.6     0.00000077     -5417.8322725874 -1.55E-11
   160 Broy./Diag. 0.50E+00    0.6     0.00000091     -5417.8322725874 -2.18E-11
   161 Broy./Diag. 0.50E+00    0.6     0.00000227     -5417.8322725874 -1.64E-11
   162 Broy./Diag. 0.50E+00    0.6     0.00000101     -5417.8322725873  1.65E-10
   163 Broy./Diag. 0.50E+00    0.6     0.00000072     -5417.8322725873 -5.46E-11
   164 Broy./Diag. 0.50E+00    0.6     0.00000098     -5417.8322725874 -3.82E-11
   165 Broy./Diag. 0.50E+00    0.6     0.00000273     -5417.8322725873  5.37E-11
   166 Broy./Diag. 0.50E+00    0.6     0.00000358     -5417.8322725873  1.91E-11
   167 Broy./Diag. 0.50E+00    0.6     0.00000544     -5417.8322725873  1.36E-11
   168 Broy./Diag. 0.50E+00    0.6     0.00000624     -5417.8322725873 -2.91E-11
   169 Broy./Diag. 0.50E+00    0.6     0.00000655     -5417.8322725872  1.54E-10
   170 Broy./Diag. 0.50E+00    0.6     0.00000622     -5417.8322725874 -2.25E-10
   171 Broy./Diag. 0.50E+00    0.6     0.00001565     -5417.8322725872  2.25E-10
   172 Broy./Diag. 0.50E+00    0.6     0.00001495     -5417.8322725860  1.11E-09
   173 Broy./Diag. 0.50E+00    0.6     0.00000870     -5417.8322725875 -1.47E-09
   174 Broy./Diag. 0.50E+00    0.6     0.00000934     -5417.8322725866  8.77E-10
   175 Broy./Diag. 0.50E+00    0.6     0.00000953     -5417.8322725878 -1.12E-09
   176 Broy./Diag. 0.50E+00    0.6     0.00000916     -5417.8322725873  4.34E-10
   177 Broy./Diag. 0.50E+00    0.6     0.00000706     -5417.8322725874 -4.09E-11
   178 Broy./Diag. 0.50E+00    0.6     0.00000931     -5417.8322725872  1.44E-10
   179 Broy./Diag. 0.50E+00    0.6     0.00000797     -5417.8322725873 -1.27E-10
   180 Broy./Diag. 0.50E+00    0.6     0.00000500     -5417.8322725873  4.82E-11
   181 Broy./Diag. 0.50E+00    0.6     0.00000493     -5417.8322725874 -1.40E-10
   182 Broy./Diag. 0.50E+00    0.6     0.00000665     -5417.8322725875 -1.18E-11
   183 Broy./Diag. 0.50E+00    0.6     0.00000592     -5417.8322725874  4.82E-11
   184 Broy./Diag. 0.50E+00    0.6     0.00000403     -5417.8322725874 -2.64E-11
   185 Broy./Diag. 0.50E+00    0.6     0.00000552     -5417.8322725871  2.96E-10
   186 Broy./Diag. 0.50E+00    0.6     0.00000511     -5417.8322725875 -3.42E-10
   187 Broy./Diag. 0.50E+00    0.6     0.00000467     -5417.8322725874  6.18E-11
   188 Broy./Diag. 0.50E+00    0.6     0.00000384     -5417.8322725875 -3.64E-11
   189 Broy./Diag. 0.50E+00    0.6     0.00000363     -5417.8322725873  1.37E-10
   190 Broy./Diag. 0.50E+00    0.6     0.00000310     -5417.8322725874 -9.19E-11
   191 Broy./Diag. 0.50E+00    0.6     0.00000307     -5417.8322725874  2.91E-11
   192 Broy./Diag. 0.50E+00    0.6     0.00000248     -5417.8322725874  5.46E-12
   193 Broy./Diag. 0.50E+00    0.6     0.00000272     -5417.8322725874  1.46E-11
   194 Broy./Diag. 0.50E+00    0.6     0.00000254     -5417.8322725874 -5.64E-11
   195 Broy./Diag. 0.50E+00    0.6     0.00000185     -5417.8322725874 -2.27E-11
   196 Broy./Diag. 0.50E+00    0.6     0.00000201     -5417.8322725873  1.23E-10
   197 Broy./Diag. 0.50E+00    0.6     0.00000200     -5417.8322725874 -5.55E-11
   198 Broy./Diag. 0.50E+00    0.6     0.00000184     -5417.8322725874 -3.64E-12
   199 Broy./Diag. 0.50E+00    0.6     0.00000222     -5417.8322725874 -5.00E-11
   200 Broy./Diag. 0.50E+00    0.6     0.00000137     -5417.8322725874  5.55E-11
   201 Broy./Diag. 0.50E+00    0.6     0.00000139     -5417.8322725874 -2.46E-11
   202 Broy./Diag. 0.50E+00    0.6     0.00000139     -5417.8322725874  2.73E-12
   203 Broy./Diag. 0.50E+00    0.6     0.00000112     -5417.8322725874 -9.09E-13
   204 Broy./Diag. 0.50E+00    0.6     0.00000093     -5417.8322725874  2.82E-11
   205 Broy./Diag. 0.50E+00    0.6     0.00000145     -5417.8322725874 -1.55E-11
   206 Broy./Diag. 0.50E+00    0.6     0.00000299     -5417.8322725874 -3.64E-11
   207 Broy./Diag. 0.50E+00    0.6     0.00000143     -5417.8322725874  4.73E-11
   208 Broy./Diag. 0.50E+00    0.6     0.00000152     -5417.8322725874  1.00E-11
   209 Broy./Diag. 0.50E+00    0.6     0.00000192     -5417.8322725874 -8.19E-12
   210 Broy./Diag. 0.50E+00    0.6     0.00000095     -5417.8322725873  1.46E-11
   211 Broy./Diag. 0.50E+00    0.6     0.00000094     -5417.8322725874 -1.64E-11
   212 Broy./Diag. 0.50E+00    0.6     0.00000087     -5417.8322725874 -1.82E-12
   213 Broy./Diag. 0.50E+00    0.6     0.00000059     -5417.8322725874  9.09E-13
   214 Broy./Diag. 0.50E+00    0.6     0.00000018     -5417.8322725874  9.09E-12
   215 Broy./Diag. 0.50E+00    0.6     0.00000136     -5417.8322725874  4.55E-12
   216 Broy./Diag. 0.50E+00    0.6     0.00000142     -5417.8322725873  5.46E-12
   217 Broy./Diag. 0.50E+00    0.6     0.00000243     -5417.8322725873  3.27E-11
   218 Broy./Diag. 0.50E+00    0.6     0.00000280     -5417.8322725874 -4.09E-11
   219 Broy./Diag. 0.50E+00    0.6     0.00000635     -5417.8322725874 -4.91E-11
   220 Broy./Diag. 0.50E+00    0.6     0.00000572     -5417.8322725870  4.31E-10
   221 Broy./Diag. 0.50E+00    0.6     0.00000350     -5417.8322725873 -3.59E-10
   222 Broy./Diag. 0.50E+00    0.6     0.00000403     -5417.8322725874 -7.00E-11
   223 Broy./Diag. 0.50E+00    0.6     0.00000507     -5417.8322725874  4.27E-11
   224 Broy./Diag. 0.50E+00    0.6     0.00000493     -5417.8322725873  2.82E-11
   225 Broy./Diag. 0.50E+00    0.6     0.00000445     -5417.8322725874 -8.82E-11
   226 Broy./Diag. 0.50E+00    0.6     0.00000447     -5417.8322725875 -3.64E-11
   227 Broy./Diag. 0.50E+00    0.6     0.00000284     -5417.8322725874  8.91E-11
   228 Broy./Diag. 0.50E+00    0.6     0.00000425     -5417.8322725873  9.28E-11
   229 Broy./Diag. 0.50E+00    0.6     0.00000288     -5417.8322725873 -4.27E-11
   230 Broy./Diag. 0.50E+00    0.6     0.00000220     -5417.8322725874 -9.55E-11
   231 Broy./Diag. 0.50E+00    0.7     0.00000231     -5417.8322725873  6.82E-11
   232 Broy./Diag. 0.50E+00    0.6     0.00000219     -5417.8322725874 -6.37E-12
   233 Broy./Diag. 0.50E+00    0.6     0.00000239     -5417.8322725874 -2.55E-11
   234 Broy./Diag. 0.50E+00    0.6     0.00000167     -5417.8322725874  1.82E-12
   235 Broy./Diag. 0.50E+00    0.6     0.00000168     -5417.8322725874 -5.46E-12
   236 Broy./Diag. 0.50E+00    0.6     0.00000249     -5417.8322725874  2.27E-11
   237 Broy./Diag. 0.50E+00    0.6     0.00000265     -5417.8322725874 -4.55E-12
   238 Broy./Diag. 0.50E+00    0.6     0.00000200     -5417.8322725874 -7.28E-12
   239 Broy./Diag. 0.50E+00    0.6     0.00000244     -5417.8322725873  4.46E-11
   240 Broy./Diag. 0.50E+00    0.6     0.00000170     -5417.8322725873 -2.00E-11
   241 Broy./Diag. 0.50E+00    0.6     0.00000107     -5417.8322725874 -4.82E-11
   242 Broy./Diag. 0.50E+00    0.6     0.00000146     -5417.8322725874  2.73E-11
   243 Broy./Diag. 0.50E+00    0.6     0.00000146     -5417.8322725873  1.55E-11
   244 Broy./Diag. 0.50E+00    0.6     0.00000120     -5417.8322725874 -1.91E-11
   245 Broy./Diag. 0.50E+00    0.6     0.00000116     -5417.8322725874  9.09E-12
   246 Broy./Diag. 0.50E+00    0.6     0.00000129     -5417.8322725874 -9.09E-12
   247 Broy./Diag. 0.50E+00    0.6     0.00000114     -5417.8322725874  1.36E-11
   248 Broy./Diag. 0.50E+00    0.6     0.00000094     -5417.8322725874 -2.00E-11
   249 Broy./Diag. 0.50E+00    0.6     0.00000067     -5417.8322725874  5.46E-12
   250 Broy./Diag. 0.50E+00    0.6     0.00000100     -5417.8322725874  8.19E-12
   251 Broy./Diag. 0.50E+00    0.6     0.00000096     -5417.8322725873  1.36E-11
   252 Broy./Diag. 0.50E+00    0.6     0.00000073     -5417.8322725874 -1.91E-11
   253 Broy./Diag. 0.50E+00    0.6     0.00000071     -5417.8322725874  4.55E-12
   254 Broy./Diag. 0.50E+00    0.6     0.00000073     -5417.8322725874 -1.82E-12
   255 Broy./Diag. 0.50E+00    0.6     0.00000063     -5417.8322725874 -7.28E-12
   256 Broy./Diag. 0.50E+00    0.6     0.00000057     -5417.8322725874  2.73E-12
   257 Broy./Diag. 0.50E+00    0.6     0.00000046     -5417.8322725874  0.00E+00
   258 Broy./Diag. 0.50E+00    0.6     0.00000032     -5417.8322725874  7.28E-12
   259 Broy./Diag. 0.50E+00    0.6     0.00000028     -5417.8322725874 -1.82E-12
   260 Broy./Diag. 0.50E+00    0.6     0.00000025     -5417.8322725874  9.09E-13
   261 Broy./Diag. 0.50E+00    0.6     0.00000026     -5417.8322725874 -2.73E-12
   262 Broy./Diag. 0.50E+00    0.6     0.00000032     -5417.8322725874 -1.82E-12
   263 Broy./Diag. 0.50E+00    0.6     0.00000018     -5417.8322725874 -1.82E-12
   264 Broy./Diag. 0.50E+00    0.6     0.00000033     -5417.8322725874  1.82E-12
   265 Broy./Diag. 0.50E+00    0.6     0.00000030     -5417.8322725874  5.46E-12
   266 Broy./Diag. 0.50E+00    0.6     0.00000032     -5417.8322725874 -3.64E-12
   267 Broy./Diag. 0.50E+00    0.6     0.00000027     -5417.8322725874  9.09E-13
   268 Broy./Diag. 0.50E+00    0.6     0.00000036     -5417.8322725874 -1.82E-12
   269 Broy./Diag. 0.50E+00    0.6     0.00000019     -5417.8322725874  1.82E-12
   270 Broy./Diag. 0.50E+00    0.6     0.00000016     -5417.8322725874  0.00E+00
   271 Broy./Diag. 0.50E+00    0.6     0.00000018     -5417.8322725874  0.00E+00
   272 Broy./Diag. 0.50E+00    0.6     0.00000019     -5417.8322725874 -9.09E-13
   273 Broy./Diag. 0.50E+00    0.6     0.00000018     -5417.8322725874  9.09E-13
   274 Broy./Diag. 0.50E+00    0.6     0.00000036     -5417.8322725874 -9.09E-13
   275 Broy./Diag. 0.50E+00    0.6     0.00000010     -5417.8322725874  0.00E+00
   276 Broy./Diag. 0.50E+00    0.6     0.00000017     -5417.8322725874 -1.82E-12
   277 Broy./Diag. 0.50E+00    0.6     0.00000012     -5417.8322725874  0.00E+00
   278 Broy./Diag. 0.50E+00    0.6     0.00000038     -5417.8322725874 -1.82E-12
   279 Broy./Diag. 0.50E+00    0.6     0.00000052     -5417.8322725874  4.55E-12
   280 Broy./Diag. 0.50E+00    0.6     0.00000016     -5417.8322725874 -9.09E-13
   281 Broy./Diag. 0.50E+00    0.6     0.00000023     -5417.8322725874  9.09E-13
   282 Broy./Diag. 0.50E+00    0.6     0.00000022     -5417.8322725874 -9.09E-13
   283 Broy./Diag. 0.50E+00    0.6     0.00000031     -5417.8322725874  1.82E-12
   284 Broy./Diag. 0.50E+00    0.6     0.00000022     -5417.8322725874  0.00E+00
   285 Broy./Diag. 0.50E+00    0.6     0.00000015     -5417.8322725874 -1.82E-12
   286 Broy./Diag. 0.50E+00    0.6     0.00000012     -5417.8322725874 -9.09E-13
   287 Broy./Diag. 0.50E+00    0.6     0.00000018     -5417.8322725874  9.09E-13
   288 Broy./Diag. 0.50E+00    0.6     0.00000023     -5417.8322725874  0.00E+00
[...]
      17     Ni       1         9.343563     8.656444    -0.000008     0.687119
      18     Ni       1         9.343562     8.656428     0.000009     0.687134
      19     Ni       1         9.343565     8.656427     0.000008     0.687138
      20     Ni       1         9.343567     8.656443    -0.000010     0.687124
      21     Ni       1         9.343567     8.656432     0.000001     0.687134
      22     Ni       1         9.343568     8.656421     0.000011     0.687147
      23     Ni       1         9.343564     8.656432     0.000004     0.687132
      24     Ni       1         9.343569     8.656435    -0.000004     0.687134
      25     Ni       1         9.343554     8.656452    -0.000006     0.687103
      26     Ni       1         9.343557     8.656443     0.000000     0.687114
      27     Ni       1         9.343558     8.656434     0.000008     0.687123
      28     Ni       1         9.343561     8.656426     0.000013     0.687136
      29     Ni       1         9.343560     8.656443    -0.000003     0.687117
      30     Ni       1         9.343562     8.656445    -0.000007     0.687117
      31     Ni       1         9.343560     8.656443    -0.000003     0.687117
      32     Ni       1         9.343563     8.656447    -0.000009     0.687116
 # Total charge and spin      298.993984   277.006016    -0.000000    21.987968

 !-----------------------------------------------------------------------------!

 !-----------------------------------------------------------------------------!
                           Hirshfeld Charges

  #Atom  Element  Kind  Ref Charge     Population       Spin moment  Net charge
      1       Ni     1      18.000    9.344   8.656            0.687      0.000
      2       Ni     1      18.000    9.344   8.656            0.687     -0.000
      3       Ni     1      18.000    9.344   8.656            0.687      0.000
      4       Ni     1      18.000    9.344   8.656            0.687      0.000
      5       Ni     1      18.000    9.344   8.656            0.687      0.000
      6       Ni     1      18.000    9.344   8.656            0.687      0.000
      7       Ni     1      18.000    9.344   8.656            0.687     -0.000
      8       Ni     1      18.000    9.344   8.656            0.687      0.000
      9       Ni     1      18.000    9.344   8.656            0.687      0.000
     10       Ni     1      18.000    9.344   8.656            0.687     -0.000
     11       Ni     1      18.000    9.344   8.656            0.687      0.000
     12       Ni     1      18.000    9.344   8.656            0.687      0.000
     13       Ni     1      18.000    9.344   8.656            0.687      0.000
     14       Ni     1      18.000    9.344   8.656            0.687     -0.000
     15       Ni     1      18.000    9.344   8.656            0.687     -0.000
     16       Ni     1      18.000    9.344   8.656            0.687     -0.000
     17       Ni     1      18.000    9.344   8.656            0.687     -0.000
     18       Ni     1      18.000    9.344   8.656            0.687      0.000
     19       Ni     1      18.000    9.344   8.656            0.687      0.000
     20       Ni     1      18.000    9.344   8.656            0.687     -0.000
     21       Ni     1      18.000    9.344   8.656            0.687      0.000
     22       Ni     1      18.000    9.344   8.656            0.687      0.000
     23       Ni     1      18.000    9.344   8.656            0.687      0.000
     24       Ni     1      18.000    9.344   8.656            0.687     -0.000
     25       Ni     1      18.000    9.344   8.656            0.687     -0.000
     26       Ni     1      18.000    9.344   8.656            0.687      0.000
     27       Ni     1      18.000    9.344   8.656            0.687      0.000
     28       Ni     1      18.000    9.344   8.656            0.687      0.000
     29       Ni     1      18.000    9.344   8.656            0.687     -0.000
     30       Ni     1      18.000    9.344   8.656            0.687     -0.000
     31       Ni     1      18.000    9.344   8.656            0.687     -0.000
     32       Ni     1      18.000    9.344   8.656            0.687     -0.000

  Total Charge                                                           -0.000
 !-----------------------------------------------------------------------------!

 ENERGY| Total FORCE_EVAL ( QS ) energy [a.u.]:            -5417.832272587497755

 -------------------------------------------------------------------------------
 -                                                                             -
 -                                DBCSR STATISTICS                             -
 -                                                                             -
 -------------------------------------------------------------------------------
 COUNTER                                    TOTAL       BLAS       SMM       ACC
 flops    26 x    26 x    32         137060352000       0.0%    100.0%      0.0%
 flops    26 x    26 x    64         456867840000       0.0%    100.0%      0.0%
 flops inhomo. stacks                           0       0.0%      0.0%      0.0%
 flops total                       593.928192E+09       0.0%    100.0%      0.0%
 flops max/rank                      7.874048E+09       0.0%    100.0%      0.0%
 matmuls inhomo. stacks                         0       0.0%      0.0%      0.0%
 matmuls total                            8448000       0.0%    100.0%      0.0%
 number of processed stacks               2048000       0.0%    100.0%      0.0%
 average stack size                                     0.0       4.1       0.0
 marketing flops                   422.262145E+09
 -------------------------------------------------------------------------------
 # multiplications                           1000
 max memory usage/rank             231.911424E+06
 # max total images/rank                        2
 # max 3D layers                                1
 # MPI messages exchanged                 3712000
 MPI messages size (bytes):
  total size                       121.831424E+09
  min size                          13.312000E+03
  max size                          53.248000E+03
  average size                      32.820965E+03
 MPI breakdown and total messages size (bytes):
             size <=      128                   0                        0
       128 < size <=     8192                   0                        0
      8192 < size <=    32768             2512000              57933824000
     32768 < size <=   131072             1200000              63897600000
    131072 < size <=  4194304                   0                        0
   4194304 < size <= 16777216                   0                        0
  16777216 < size                               0                        0
 -------------------------------------------------------------------------------

 *** WARNING in dbcsr_mm.F:290 :: Using a non-square number of MPI ranks ***
 *** might lead to poor performance. Used ranks: 128 Suggested: 121 256  ***

 -------------------------------------------------------------------------------
 -                                                                             -
 -                      DBCSR MESSAGE PASSING PERFORMANCE                      -
 -                                                                             -
 -------------------------------------------------------------------------------
 ROUTINE             CALLS      AVE VOLUME [Bytes]
 MP_Bcast                3                     12.
 MP_Allreduce         7025                      8.
 MP_Alltoall         28012                  57203.
 MP_ISend            64000                  15890.
 MP_IRecv            64000                  15058.
 -------------------------------------------------------------------------------

 -------------------------------------------------------------------------------
 -                                                                             -
 -                                DBM STATISTICS                               -
 -                                                                             -
 -------------------------------------------------------------------------------
    M  x    N  x    K                                          COUNT     PERCENT
 -------------------------------------------------------------------------------

 -------------------------------------------------------------------------------
 -                                                                             -
 -                                GRID STATISTICS                              -
 -                                                                             -
 -------------------------------------------------------------------------------
 LP    KERNEL             BACKEND                              COUNT     PERCENT
 6     collocate ortho    REF                               77210112      50.02%
 6     integrate ortho    REF                               77056000      49.92%
 0     integrate general  REF                                  65536       0.04%
 0     collocate general  REF                                  36864       0.02%
 -------------------------------------------------------------------------------

 MEMORY| Estimated peak process memory [MiB]                                 223

 -------------------------------------------------------------------------------
 ----                             MULTIGRID INFO                            ----
 -------------------------------------------------------------------------------
 count for grid        1:         969696          cutoff [a.u.]          300.00
 count for grid        2:         304320          cutoff [a.u.]          100.00
 count for grid        3:         238080          cutoff [a.u.]           33.33
 count for grid        4:          65120          cutoff [a.u.]           11.11
 count for grid        5:           5120          cutoff [a.u.]            3.70
 total gridlevel count  :        1582336

 -------------------------------------------------------------------------------
 -                                                                             -
 -                         MESSAGE PASSING PERFORMANCE                         -
 -                                                                             -
 -------------------------------------------------------------------------------

 ROUTINE             CALLS      AVE VOLUME [Bytes]
 MP_Group                5
 MP_Bcast             2531                  75221.
 MP_Allreduce        12899                     95.
 MP_Sync             18021
 MP_Alltoall         33034               27070080.
 MP_SendRecv        509016                   5208.
 MP_ISendRecv       508000                   5208.
 MP_Wait            606262
 MP_comm_split        1000
 MP_ISend           206212                  38670.
 MP_IRecv           206456                  38627.
 MP_Recv              1250                 212992.
 MP_Write_All            2                  19908.
 -------------------------------------------------------------------------------


 -------------------------------------------------------------------------------
 -                                                                             -
 -                           R E F E R E N C E S                               -
 -                                                                             -
 -------------------------------------------------------------------------------
 
 CP2K version 2023.1, the CP2K developers group (2023).
 CP2K is freely available from https://www.cp2k.org/ .

 Kuehne,Thomas D.; Iannuzzi,Marcella; Del Ben,Mauro;
 Rybkin,Vladimir V.; Seewald,Patrick; Stein,Frederick; Laino,Teodoro;
 Khaliullin,Rustam Z.; Schuett,Ole; Schiffmann,Florian; Golze,Dorothea;
 Wilhelm,Jan; Chulkov,Sergey; Bani-Hashemian,Mohammad Hossein;
 Weber,Valery; Borstnik,Urban; Taillefumier,Mathieu;
 Jakobovits,Alice Shoshana; Lazzaro,Alfio; Pabst,Hans; Mueller,Tiziano;
 Schade,Robert; Guidon,Manuel; Andermatt,Samuel; Holmberg,Nico;
 Schenter,Gregory K.; Hehn,Anna; Bussy,Augustin; Belleflamme,Fabian;
 Tabacchi,Gloria; Gloess,Andreas; Lass,Michael; Bethune,Iain;
 Mundy,Christopher J.; Plessl,Christian; Watkins,Matt;
 VandeVondele,Joost; Krack,Matthias; Hutter,Juerg. 
 The Journal of Chemical Physics, 152 (19), (2020). 
 CP2K: An electronic structure and molecular dynamics software package -
 Quickstep: Efficient and accurate electronic structure calculations.
 https://doi.org/10.1063/5.0007045

 Schuett, Ole; Messmer, Peter; Hutter, Juerg; VandeVondele, Joost. 
 Electronic Structure Calculations on Graphics Processing Units, John
 Wiley & Sons, Ltd, 173-190 (2016). 
 GPU-Accelerated Sparse Matrix-Matrix Multiplication for
 Linear Scaling Density Functional Theory.
 https://doi.org/10.1002/9781118670712.ch8

 Heinecke, A; Henry, G; Hutchinson, M; Pabst, H. 
 Proceedings of Intl. Supercomputing Conference, 981-991 (2016). 
 LIBXSMM: Accelerating Small Matrix Multiplications
 by Runtime Code Generation.
 https://doi.org/10.1109/SC.2016.83

 Borstnik, U; VandeVondele, J; Weber, V; Hutter, J. 
 PARALLEL COMPUTING, 40 (5-6), 47-58 (2014). 
 Sparse matrix multiplication: The distributed block-compressed sparse
 row library.
 https://doi.org/10.1016/j.parco.2014.03.012

 Hutter, J; Iannuzzi, M; Schiffmann, F; VandeVondele, J. 
 WIREs Comput Mol Sci., 4 (1), 15-25 (2014). 
 CP2K: atomistic simulations of condensed matter systems.
 https://doi.org/10.1002/wcms.1159

 Marek, A; Blum, V; Johanni, R; Havu, V; Lang, B; Auckenthaler, T;
 Heinecke, A; Bungartz, H; Lederer, H. 
 Journal of Physics: Condensed Matter, 26 (21), (2014). 
 The ELPA library: scalable parallel eigenvalue solutions for
 electronic structure
 theory and computational science.
 https://doi.org/10.1088/0953-8984/26/21/213201

 VandeVondele, J; Hutter, J. 
 JOURNAL OF CHEMICAL PHYSICS, 127 (11), 114105 (2007). 
 Gaussian basis sets for accurate calculations on molecular systems in
 gas and condensed phases.
 https://doi.org/10.1063/1.2770708

 Krack, M. 
 THEORETICAL CHEMISTRY ACCOUNTS, 114 (1-3), 145-152 (2005). 
 Pseudopotentials for H to Kr optimized for gradient-corrected
 exchange-correlation functionals.
 https://doi.org/10.1007/s00214-005-0655-y

 VandeVondele, J; Krack, M; Mohamed, F; Parrinello, M; Chassaing, T;
 Hutter, J. COMPUTER PHYSICS COMMUNICATIONS, 167 (2), 103-128 (2005). 
 QUICKSTEP: Fast and accurate density functional calculations using a
 mixed Gaussian and plane waves approach.
 https://doi.org/10.1016/j.cpc.2004.12.014

 Frigo, M; Johnson, SG. 
 PROCEEDINGS OF THE IEEE, 93 (2), 216-231 (2005). 
 The design and implementation of FFTW3.
 https://doi.org/10.1109/JPROC.2004.840301

 Hartwigsen, C; Goedecker, S; Hutter, J. 
 PHYSICAL REVIEW B, 58 (7), 3641-3662 (1998). 
 Relativistic separable dual-space Gaussian pseudopotentials from H to Rn.
 https://doi.org/10.1103/PhysRevB.58.3641

 Lippert, G; Hutter, J; Parrinello, M. 
 MOLECULAR PHYSICS, 92 (3), 477-487 (1997). 
 A hybrid Gaussian and plane wave density functional scheme.
 https://doi.org/10.1080/002689797170220

 Perdew, JP; Burke, K; Ernzerhof, M. 
 PHYSICAL REVIEW LETTERS, 77 (18), 3865-3868 (1996). 
 Generalized gradient approximation made simple.
 https://doi.org/10.1103/PhysRevLett.77.3865

 Goedecker, S; Teter, M; Hutter, J. 
 PHYSICAL REVIEW B, 54 (3), 1703-1710 (1996). 
 Separable dual-space Gaussian pseudopotentials.
 https://doi.org/10.1103/PhysRevB.54.1703


 -------------------------------------------------------------------------------
 -                                                                             -
 -                                T I M I N G                                  -
 -                                                                             -
 -------------------------------------------------------------------------------
 SUBROUTINE                       CALLS  ASD         SELF TIME        TOTAL TIME
                                MAXIMUM       AVERAGE  MAXIMUM  AVERAGE  MAXIMUM
 CP2K                                 1  1.0    0.046    0.078  294.569  294.593
 qs_energies                          1  2.0    0.001    0.002  294.091  294.092
 scf_env_do_scf                       1  3.0    0.001    0.002  292.588  292.595
 scf_env_do_scf_inner_loop          500  4.0    0.022    0.049  292.587  292.593
 qs_ks_update_qs_env                500  5.0    0.007    0.009  101.953  102.016
 rebuild_ks_matrix                  500  6.0    0.003    0.003  101.897  101.960
 qs_ks_build_kohn_sham_matrix       500  7.0    0.073    0.105  101.894  101.958
 qs_scf_new_mos                     500  5.0    0.010    0.012   95.557   95.707
 qs_rho_update_rho_low              501  5.0    0.006    0.007   89.751   89.774
 calculate_rho_elec                1002  6.0    0.078    0.086   89.745   89.768
 eigensolver                       1000  6.0    0.094    0.135   87.469   87.519
 sum_up_and_integrate               500  8.0    0.070    0.130   85.830   85.902
 integrate_v_rspace                1000  9.0    0.027    0.038   85.756   85.837
 cp_fm_diag_elpa                   1000  7.0    0.004    0.009   78.208   78.351
 cp_fm_redistribute_end            1000  8.0   67.522   77.347   67.788   77.363
 cp_fm_diag_elpa_base              1000  8.0    9.379   75.183    9.524   76.224
 grid_collocate_task_list          1002  7.0   68.836   71.332   68.836   71.332
 grid_integrate_task_list          1000 10.0   61.548   64.352   61.548   64.352
 rs_pw_transfer                   10014  9.5    0.120    0.175   31.152   33.326
 density_rs2pw                     1002  7.0    0.040    0.048   19.927   22.109
 pw_transfer                      20511 10.0    2.597    2.807   21.027   21.790
 potential_pw2rs                   1000 10.0    0.038    0.046   20.727   20.916
 fft_wrap_pw1pw2                  19511 11.1    0.084    0.097   18.396   19.421
 fft_wrap_pw1pw2_300              11503 12.4    0.395    0.474   15.012   15.561
 qs_vxc_create                      500  8.0    0.007    0.008   14.742   14.787
 xc_vxc_pw_create                   500  9.0    0.132    0.145   14.735   14.780
 fft3d_pb                         11503 13.4    3.524    3.832   12.689   13.505
 mp_waitany                       64192 11.5    9.549   12.385    9.549   12.385
 rs_pw_transfer_PW2RS_300          1002 12.0    4.032    4.765   11.739   12.177
 rs_pw_transfer_RS2PW_300          1004  9.0    3.064    4.187    9.166   11.339
 xc_rho_set_and_dset_create         500 10.0    0.145    0.164    8.963    9.427
 mp_alltoall_z22v                 31014 15.2    7.835    9.352    7.835    9.352
 cp_fm_cholesky_restore            3000  7.0    8.880    9.120    8.880    9.120
 xc_pw_derive                      6000 11.0    0.016    0.021    8.119    8.808
 mp_alltoall_d11v                 14008  9.3    4.497    6.505    4.497    6.505
 xc_pw_divergence                  1000 10.0    0.008    0.010    5.501    6.289
 -------------------------------------------------------------------------------

 The number of warnings for this run is : 4
 
 -------------------------------------------------------------------------------
  **** **** ******  **  PROGRAM ENDED AT                 2023-02-06 16:54:17.972
 ***** ** ***  *** **   PROGRAM RAN ON                                 nid001543
 **    ****   ******    PROGRAM RAN BY                                    cahart
 ***** **    ** ** **   PROGRAM PROCESS ID                                 51682
  **** **  *******  **  PROGRAM STOPPED IN /mnt/lustre/a2fs-work2/work/e05/e05/c
                                           ahart/postdoc/masters/ni/archer2/bulk
                                           /optimise/multiplicity-65-magnetizati
                                           on/search/5.0E-01_1.0E-1
