 DBCSR| CPU Multiplication driver                                           XSMM (U)
 DBCSR| Multrec recursion limit                                              512 (U)
 DBCSR| Multiplication stack size                                           1000 (D)
 DBCSR| Maximum elements for images                                    UNLIMITED (U)
 DBCSR| Multiplicative factor virtual images                                   1 (U)
 DBCSR| Use multiplication densification                                       T (D)
 DBCSR| Multiplication size stacks                                             3 (U)
 DBCSR| Use memory pool for CPU allocation                                     F (U)
 DBCSR| Number of 3D layers                                               SINGLE (U)
 DBCSR| Use MPI memory allocation                                              F (U)
 DBCSR| Use RMA algorithm                                                      F (U)
 DBCSR| Use Communication thread                                               T (U)
 DBCSR| Communication thread load                                             87 (D)
 DBCSR| MPI: My process id                                                     0
 DBCSR| MPI: Number of processes                                             128
 DBCSR| OMP: Current number of threads                                         1
 DBCSR| OMP: Max number of threads                                             1
 DBCSR| Split modifier for TAS multiplication algorithm                  1.0E+00 (U)


  **** **** ******  **  PROGRAM STARTED AT               2023-02-14 17:28:51.697
 ***** ** ***  *** **   PROGRAM STARTED ON                             nid002607
 **    ****   ******    PROGRAM STARTED BY                                cahart
 ***** **    ** ** **   PROGRAM PROCESS ID                                104806
  **** **  *******  **  PROGRAM STARTED IN /mnt/lustre/a2fs-work2/work/e05/e05/c
                                           ahart/postdoc/masters/ni/archer2/slab
                                           /optimise/temp/scf_1e-3_mos-1000_alph
                                           a-0.08_beta-1.5_spin-0.7-0.5_periodic
                                           -xyz/search/700

 CP2K| version string:                 CP2K version 2023.1 (Development Version)
 CP2K| source code revision number:                                  git:964cd58
 CP2K| cp2kflags: omp libint fftw3 libxc elpa parallel scalapack xsmm plumed2 mk
 CP2K|            l
 CP2K| is freely available from                            https://www.cp2k.org/
 CP2K| Program compiled at                          Mon 13 Feb 17:05:14 GMT 2023
 CP2K| Program compiled on                                                  ln01
 CP2K| Program compiled for                                              ARCHER2
 CP2K| Data directory path    /work/e05/e05/cahart/cp2k/cp2k-2023.1/cp2k-2023.1-
 CP2K| Input file name                                                  cp2k.inp

 GLOBAL| Force Environment number                                              1
 GLOBAL| Basis set file name                                        BASIS_MOLOPT
 GLOBAL| Potential file name                                      GTH_POTENTIALS
 GLOBAL| MM Potential file name                                     MM_POTENTIAL
 GLOBAL| Coordinate file name                                      __STD_INPUT__
 GLOBAL| Method name                                                        CP2K
 GLOBAL| Project name                                                    Ni_bulk
 GLOBAL| Run type                                                         ENERGY
 GLOBAL| FFT library                                                       FFTW3
 GLOBAL| Diagonalization library                                            ELPA
 GLOBAL| DGEMM library                                                      BLAS
 GLOBAL| Minimum number of eigenvectors for ELPA usage                        16
 GLOBAL| Orthonormality check for eigenvectors                          DISABLED
 GLOBAL| Matrix multiplication library                                 ScaLAPACK
 GLOBAL| All-to-all communication in single precision                          F
 GLOBAL| FFTs using library dependent lengths                                  F
 GLOBAL| Grid backend                                                       AUTO
 GLOBAL| Global print level                                               MEDIUM
 GLOBAL| MPI I/O enabled                                                       T
 GLOBAL| Total number of message passing processes                           128
 GLOBAL| Number of threads for this process                                    1
 GLOBAL| This output is from process                                           0
 GLOBAL| Stack size for threads created by OpenMP (OMP_STACKSIZE)        default
 GLOBAL| CPU model name                          AMD EPYC 7742 64-Core Processor
 GLOBAL| CPUID                                                              1002

 MEMORY| system memory details [Kb]
 MEMORY|                        rank 0           min           max       average
 MEMORY| MemTotal            263528084     263528084     263528084     263528084
 MEMORY| MemFree             238317836     238317820     238317836     238317832
 MEMORY| Buffers                 34648         34648         34648         34648
 MEMORY| Cached                 933388        933388        933388        933388
 MEMORY| Slab                  1673684       1673684       1673700       1673687
 MEMORY| SReclaimable           135292        135292        135292        135292
 MEMORY| MemLikelyFree       239421164     239421148     239421164     239421160


 *** Fundamental physical constants (SI units) ***

 *** Literature: B. J. Mohr and B. N. Taylor,
 ***             CODATA recommended values of the fundamental physical
 ***             constants: 2006, Web Version 5.1
 ***             http://physics.nist.gov/constants

 Speed of light in vacuum [m/s]                             2.99792458000000E+08
 Magnetic constant or permeability of vacuum [N/A**2]       1.25663706143592E-06
 Electric constant or permittivity of vacuum [F/m]          8.85418781762039E-12
 Planck constant (h) [J*s]                                  6.62606896000000E-34
 Planck constant (h-bar) [J*s]                              1.05457162825177E-34
 Elementary charge [C]                                      1.60217648700000E-19
 Electron mass [kg]                                         9.10938215000000E-31
 Electron g factor [ ]                                     -2.00231930436220E+00
 Proton mass [kg]                                           1.67262163700000E-27
 Fine-structure constant                                    7.29735253760000E-03
 Rydberg constant [1/m]                                     1.09737315685270E+07
 Avogadro constant [1/mol]                                  6.02214179000000E+23
 Boltzmann constant [J/K]                                   1.38065040000000E-23
 Atomic mass unit [kg]                                      1.66053878200000E-27
 Bohr radius [m]                                            5.29177208590000E-11

 *** Conversion factors ***

 [u] -> [a.u.]                                              1.82288848426455E+03
 [Angstrom] -> [Bohr] = [a.u.]                              1.88972613288564E+00
 [a.u.] = [Bohr] -> [Angstrom]                              5.29177208590000E-01
 [a.u.] -> [s]                                              2.41888432650478E-17
 [a.u.] -> [fs]                                             2.41888432650478E-02
 [a.u.] -> [J]                                              4.35974393937059E-18
 [a.u.] -> [N]                                              8.23872205491840E-08
 [a.u.] -> [K]                                              3.15774647902944E+05
 [a.u.] -> [kJ/mol]                                         2.62549961709828E+03
 [a.u.] -> [kcal/mol]                                       6.27509468713739E+02
 [a.u.] -> [Pa]                                             2.94210107994716E+13
 [a.u.] -> [bar]                                            2.94210107994716E+08
 [a.u.] -> [atm]                                            2.90362800883016E+08
 [a.u.] -> [eV]                                             2.72113838565563E+01
 [a.u.] -> [Hz]                                             6.57968392072181E+15
 [a.u.] -> [1/cm] (wave numbers)                            2.19474631370540E+05
 [a.u./Bohr**2] -> [1/cm]                                   5.14048714338585E+03
 

 CELL_TOP| Volume [angstrom^3]:                                       983.249569
 CELL_TOP| Vector a [angstrom     7.012     0.000     0.000   |a| =     7.011596
 CELL_TOP| Vector b [angstrom     0.000     7.012     0.000   |b| =     7.011596
 CELL_TOP| Vector c [angstrom     0.000     0.000    20.000   |c| =    20.000000
 CELL_TOP| Angle (b,c), alpha [degree]:                                90.000000
 CELL_TOP| Angle (a,c), beta  [degree]:                                90.000000
 CELL_TOP| Angle (a,b), gamma [degree]:                                90.000000
 CELL_TOP| Numerically orthorhombic:                                         YES
 CELL_TOP| Periodicity                                                       XYZ

 GENERATE|  Preliminary Number of Bonds generated:                             0
 GENERATE|  Achieved consistency in connectivity generation.

 CELL| Volume [angstrom^3]:                                           983.249569
 CELL| Vector a [angstrom]:       7.012     0.000     0.000   |a| =     7.011596
 CELL| Vector b [angstrom]:       0.000     7.012     0.000   |b| =     7.011596
 CELL| Vector c [angstrom]:       0.000     0.000    20.000   |c| =    20.000000
 CELL| Angle (b,c), alpha [degree]:                                    90.000000
 CELL| Angle (a,c), beta  [degree]:                                    90.000000
 CELL| Angle (a,b), gamma [degree]:                                    90.000000
 CELL| Numerically orthorhombic:                                             YES
 CELL| Periodicity                                                           XYZ

 CELL_REF| Volume [angstrom^3]:                                       983.249569
 CELL_REF| Vector a [angstrom     7.012     0.000     0.000   |a| =     7.011596
 CELL_REF| Vector b [angstrom     0.000     7.012     0.000   |b| =     7.011596
 CELL_REF| Vector c [angstrom     0.000     0.000    20.000   |c| =    20.000000
 CELL_REF| Angle (b,c), alpha [degree]:                                90.000000
 CELL_REF| Angle (a,c), beta  [degree]:                                90.000000
 CELL_REF| Angle (a,b), gamma [degree]:                                90.000000
 CELL_REF| Numerically orthorhombic:                                         YES
 CELL_REF| Periodicity                                                       XYZ

 *** WARNING in cryssym.F:165 :: Symmetry library SPGLIB not available ***


 *******************************************************************************
                                    Kpoints
 *******************************************************************************
 BRILLOUIN| K-point scheme                                        Monkhorst-Pack
 BRILLOUIN| K-Point grid                                             4    4    1
 BRILLOUIN| Accuracy in Symmetry determination                      0.100000E-05
 BRILLOUIN| K-Point point group symmetrization                               OFF
 BRILLOUIN| Wavefunction type                                            COMPLEX
 BRILLOUIN| List of Kpoints [2 Pi/Bohr]                                        8
 BRILLOUIN| Number           Weight            X              Y              Z
 BRILLOUIN|     1           0.12500       -0.37500       -0.37500        0.00000
 BRILLOUIN|     2           0.12500       -0.37500       -0.12500        0.00000
 BRILLOUIN|     3           0.12500       -0.37500        0.12500        0.00000
 BRILLOUIN|     4           0.12500       -0.37500        0.37500        0.00000
 BRILLOUIN|     5           0.12500       -0.12500       -0.37500        0.00000
 BRILLOUIN|     6           0.12500       -0.12500       -0.12500        0.00000
 BRILLOUIN|     7           0.12500       -0.12500        0.12500        0.00000
 BRILLOUIN|     8           0.12500       -0.12500        0.37500        0.00000
 *******************************************************************************

 *******************************************************************************
 *******************************************************************************
 **                                                                           **
 **     #####                         ##              ##                      **
 **    ##   ##            ##          ##              ##                      **
 **   ##     ##                       ##            ######                    **
 **   ##     ##  ##   ##  ##   #####  ##  ##   ####   ##    #####    #####    **
 **   ##     ##  ##   ##  ##  ##      ## ##   ##      ##   ##   ##  ##   ##   **
 **   ##  ## ##  ##   ##  ##  ##      ####     ###    ##   ######   ######    **
 **    ##  ###   ##   ##  ##  ##      ## ##      ##   ##   ##       ##        **
 **     #######   #####   ##   #####  ##  ##  ####    ##    #####   ##        **
 **           ##                                                    ##        **
 **                                                                           **
 **                                                ... make the atoms dance   **
 **                                                                           **
 **            Copyright (C) by CP2K developers group (2000-2023)             **
 **                      J. Chem. Phys. 152, 194103 (2020)                    **
 **                                                                           **
 *******************************************************************************

 *** WARNING in qs_environment.F:1456 :: Number of electrons will be ***
 *** overwritten by NELEC_ALPHA and NELEC_BETA, multiplicity will be ***
 *** ignored.                                                        ***

 Number of electrons should be                                               576
 Sum of NELEC_ALPHA and NELEC_BETA is                                    576.000

 *** WARNING in qs_environment.F:1488 :: NELEC_ALPHA is not an integer, ***
 *** many features will not be supported.                               ***


 *** WARNING in qs_environment.F:1500 :: NELEC_BETA is not an integer, ***
 *** many features will not be supported.                              ***


 *** WARNING in qs_environment.F:1532 :: More ADDED_MOs requested for beta ***
 *** spin than available.                                                  ***


 *** WARNING in qs_environment.F:1548 :: More added MOs requested than     ***
 *** available. The full set of unoccupied MOs will be used. Use           ***
 *** 'ADDED_MOS -1' to always use all available MOs and to get rid of this ***
 *** warning.                                                              ***


 DFT| Spin unrestricted (spin-polarized) Kohn-Sham calculation               UKS
 DFT| Multiplicity                                                             1
 DFT| Number of spin states                                                    2
 DFT| Charge                                                                   0
 DFT| Self-interaction correction (SIC)                                       NO
 DFT| Cutoffs: density                                              1.000000E-10
 DFT|          gradient                                             1.000000E-10
 DFT|          tau                                                  1.000000E-10
 DFT|          cutoff_smoothing_range                               0.000000E+00
 DFT| XC density smoothing                                                  NONE
 DFT| XC derivatives                                                          PW

 FUNCTIONAL| PBE:
 FUNCTIONAL| J.P.Perdew, K.Burke, M.Ernzerhof, Phys. Rev. Letter, vol. 77, n 18,
 FUNCTIONAL|  pp. 3865-3868, (1996){spin polarized}                             

 vdW POTENTIAL|                                                   Pair Potential
 vdW POTENTIAL|          DFT-D3 (Version 3.1)
 vdW POTENTIAL|          Potential Form: S. Grimme et al, JCP 132: 154104 (2010)
 vdW POTENTIAL|          Zero Damping
 vdW POTENTIAL|          Cutoff Radius [Bohr]:                             20.00
 vdW POTENTIAL|          s6 Scaling Factor:                               1.0000
 vdW POTENTIAL|          sr6 Scaling Factor:                              1.2170
 vdW POTENTIAL|          s8 Scaling Factor:                               0.7220
 vdW POTENTIAL|          Cutoff for CN calculation:                   0.1000E-05

 QS| Method:                                                                 GPW
 QS| Density plane wave grid type                        NON-SPHERICAL FULLSPACE
 QS| Number of grid levels:                                                    5
 QS| Density cutoff [a.u.]:                                                300.0
 QS| Multi grid cutoff [a.u.]: 1) grid level                               300.0
 QS|                           2) grid level                               100.0
 QS|                           3) grid level                                33.3
 QS|                           4) grid level                                11.1
 QS|                           5) grid level                                 3.7
 QS| Grid level progression factor:                                          3.0
 QS| Relative density cutoff [a.u.]:                                        30.0
 QS| Interaction thresholds: eps_pgf_orb:                                1.0E-06
 QS|                         eps_filter_matrix:                          0.0E+00
 QS|                         eps_core_charge:                            1.0E-14
 QS|                         eps_rho_gspace:                             1.0E-12
 QS|                         eps_rho_rspace:                             1.0E-12
 QS|                         eps_gvg_rspace:                             1.0E-06
 QS|                         eps_ppl:                                    1.0E-02
 QS|                         eps_ppnl:                                   1.0E-08


 ATOMIC KIND INFORMATION

  1. Atomic kind: Ni_i                                  Number of atoms:      16

     Orbital Basis Set                                        DZVP-MOLOPT-SR-GTH

       Number of orbital shell sets:                                           1
       Number of orbital shells:                                               8
       Number of primitive Cartesian functions:                                6
       Number of Cartesian basis functions:                                   31
       Number of spherical basis functions:                                   26
       Norm type:                                                              2

       Normalised Cartesian orbitals:

                        Set   Shell   Orbital            Exponent    Coefficient

                          1       1    2s               10.077428      -0.684558
                                                         5.847736      -0.844524
                                                         2.494033       1.088856
                                                         0.988355       0.395503
                                                         0.344978       0.010224
                                                         0.099466      -0.003250

                          1       2    3s               10.077428       0.096747
                                                         5.847736       0.162504
                                                         2.494033      -0.297192
                                                         0.988355      -0.319752
                                                         0.344978       0.088318
                                                         0.099466       0.118587

                          1       3    4s               10.077428       0.036437
                                                         5.847736      -0.381480
                                                         2.494033       0.003759
                                                         0.988355      -1.048256
                                                         0.344978       0.855825
                                                         0.099466      -0.176350

                          1       4    3px              10.077428      -3.133913
                                                         5.847736       3.027656
                                                         2.494033       2.353227
                                                         0.988355       0.554184
                                                         0.344978       0.019462
                                                         0.099466      -0.000291
                          1       4    3py              10.077428      -3.133913
                                                         5.847736       3.027656
                                                         2.494033       2.353227
                                                         0.988355       0.554184
                                                         0.344978       0.019462
                                                         0.099466      -0.000291
                          1       4    3pz              10.077428      -3.133913
                                                         5.847736       3.027656
                                                         2.494033       2.353227
                                                         0.988355       0.554184
                                                         0.344978       0.019462
                                                         0.099466      -0.000291

                          1       5    4px              10.077428      -0.112729
                                                         5.847736      -0.114008
                                                         2.494033      -0.347303
                                                         0.988355      -0.110323
                                                         0.344978       0.154096
                                                         0.099466       0.058386
                          1       5    4py              10.077428      -0.112729
                                                         5.847736      -0.114008
                                                         2.494033      -0.347303
                                                         0.988355      -0.110323
                                                         0.344978       0.154096
                                                         0.099466       0.058386
                          1       5    4pz              10.077428      -0.112729
                                                         5.847736      -0.114008
                                                         2.494033      -0.347303
                                                         0.988355      -0.110323
                                                         0.344978       0.154096
                                                         0.099466       0.058386

                          1       6    4dx2             10.077428       8.232726
                                                         5.847736       9.105758
                                                         2.494033       2.849835
                                                         0.988355       0.554319
                                                         0.344978       0.067245
                                                         0.099466       0.001940
                          1       6    4dxy             10.077428      14.259500
                                                         5.847736      15.771636
                                                         2.494033       4.936060
                                                         0.988355       0.960109
                                                         0.344978       0.116472
                                                         0.099466       0.003360
                          1       6    4dxz             10.077428      14.259500
                                                         5.847736      15.771636
                                                         2.494033       4.936060
                                                         0.988355       0.960109
                                                         0.344978       0.116472
                                                         0.099466       0.003360
                          1       6    4dy2             10.077428       8.232726
                                                         5.847736       9.105758
                                                         2.494033       2.849835
                                                         0.988355       0.554319
                                                         0.344978       0.067245
                                                         0.099466       0.001940
                          1       6    4dyz             10.077428      14.259500
                                                         5.847736      15.771636
                                                         2.494033       4.936060
                                                         0.988355       0.960109
                                                         0.344978       0.116472
                                                         0.099466       0.003360
                          1       6    4dz2             10.077428       8.232726
                                                         5.847736       9.105758
                                                         2.494033       2.849835
                                                         0.988355       0.554319
                                                         0.344978       0.067245
                                                         0.099466       0.001940

                          1       7    5dx2             10.077428      -2.715373
                                                         5.847736      -4.020640
                                                         2.494033      -1.397569
                                                         0.988355      -0.076143
                                                         0.344978       0.033435
                                                         0.099466       0.026032
                          1       7    5dxy             10.077428      -4.703164
                                                         5.847736      -6.963952
                                                         2.494033      -2.420661
                                                         0.988355      -0.131883
                                                         0.344978       0.057911
                                                         0.099466       0.045088
                          1       7    5dxz             10.077428      -4.703164
                                                         5.847736      -6.963952
                                                         2.494033      -2.420661
                                                         0.988355      -0.131883
                                                         0.344978       0.057911
                                                         0.099466       0.045088
                          1       7    5dy2             10.077428      -2.715373
                                                         5.847736      -4.020640
                                                         2.494033      -1.397569
                                                         0.988355      -0.076143
                                                         0.344978       0.033435
                                                         0.099466       0.026032
                          1       7    5dyz             10.077428      -4.703164
                                                         5.847736      -6.963952
                                                         2.494033      -2.420661
                                                         0.988355      -0.131883
                                                         0.344978       0.057911
                                                         0.099466       0.045088
                          1       7    5dz2             10.077428      -2.715373
                                                         5.847736      -4.020640
                                                         2.494033      -1.397569
                                                         0.988355      -0.076143
                                                         0.344978       0.033435
                                                         0.099466       0.026032

                          1       8    5fx3             10.077428      -0.467694
                                                         5.847736       0.618100
                                                         2.494033       0.066069
                                                         0.988355       0.262898
                                                         0.344978       0.004720
                                                         0.099466       0.007748
                          1       8    5fx2y            10.077428      -1.045795
                                                         5.847736       1.382114
                                                         2.494033       0.147734
                                                         0.988355       0.587859
                                                         0.344978       0.010555
                                                         0.099466       0.017325
                          1       8    5fx2z            10.077428      -1.045795
                                                         5.847736       1.382114
                                                         2.494033       0.147734
                                                         0.988355       0.587859
                                                         0.344978       0.010555
                                                         0.099466       0.017325
                          1       8    5fxy2            10.077428      -1.045795
                                                         5.847736       1.382114
                                                         2.494033       0.147734
                                                         0.988355       0.587859
                                                         0.344978       0.010555
                                                         0.099466       0.017325
                          1       8    5fxyz            10.077428      -1.811371
                                                         5.847736       2.393892
                                                         2.494033       0.255883
                                                         0.988355       1.018201
                                                         0.344978       0.018282
                                                         0.099466       0.030008
                          1       8    5fxz2            10.077428      -1.045795
                                                         5.847736       1.382114
                                                         2.494033       0.147734
                                                         0.988355       0.587859
                                                         0.344978       0.010555
                                                         0.099466       0.017325
                          1       8    5fy3             10.077428      -0.467694
                                                         5.847736       0.618100
                                                         2.494033       0.066069
                                                         0.988355       0.262898
                                                         0.344978       0.004720
                                                         0.099466       0.007748
                          1       8    5fy2z            10.077428      -1.045795
                                                         5.847736       1.382114
                                                         2.494033       0.147734
                                                         0.988355       0.587859
                                                         0.344978       0.010555
                                                         0.099466       0.017325
                          1       8    5fyz2            10.077428      -1.045795
                                                         5.847736       1.382114
                                                         2.494033       0.147734
                                                         0.988355       0.587859
                                                         0.344978       0.010555
                                                         0.099466       0.017325
                          1       8    5fz3             10.077428      -0.467694
                                                         5.847736       0.618100
                                                         2.494033       0.066069
                                                         0.988355       0.262898
                                                         0.344978       0.004720
                                                         0.099466       0.007748

       Atomic covalent radius [Angstrom]:                                  1.150

       Atomic van der Waals radius [Angstrom]:                             1.630

     GTH Potential information for                                   GTH-PBE-q18

       Description:                       Goedecker-Teter-Hutter pseudopotential
                                           Goedecker et al., PRB 54, 1703 (1996)
                                          Hartwigsen et al., PRB 58, 3641 (1998)
                                                      Krack, TCA 114, 145 (2005)

       Gaussian exponent of the core charge distribution:               4.081633
       Electronic configuration (s p d ...):                           4   6   8

       Parameters of the local part of the GTH pseudopotential:

                          rloc        C1          C2          C3          C4
                        0.350000    2.102166    0.648484

       Parameters of the non-local part of the GTH pseudopotential:

                   l      r(l)      h(i,j,l)

                   0    0.261295    0.622658    9.970227
                                    9.970227  -12.871507
                   1    0.224253  -11.142708   12.429566
                                   12.429566  -14.706861
                   2    0.215348  -12.628146

  2. Atomic kind: Ni_b                                  Number of atoms:      16

     Orbital Basis Set                                        DZVP-MOLOPT-SR-GTH

       Number of orbital shell sets:                                           1
       Number of orbital shells:                                               8
       Number of primitive Cartesian functions:                                6
       Number of Cartesian basis functions:                                   31
       Number of spherical basis functions:                                   26
       Norm type:                                                              2

       Normalised Cartesian orbitals:

                        Set   Shell   Orbital            Exponent    Coefficient

                          1       1    2s               10.077428      -0.684558
                                                         5.847736      -0.844524
                                                         2.494033       1.088856
                                                         0.988355       0.395503
                                                         0.344978       0.010224
                                                         0.099466      -0.003250

                          1       2    3s               10.077428       0.096747
                                                         5.847736       0.162504
                                                         2.494033      -0.297192
                                                         0.988355      -0.319752
                                                         0.344978       0.088318
                                                         0.099466       0.118587

                          1       3    4s               10.077428       0.036437
                                                         5.847736      -0.381480
                                                         2.494033       0.003759
                                                         0.988355      -1.048256
                                                         0.344978       0.855825
                                                         0.099466      -0.176350

                          1       4    3px              10.077428      -3.133913
                                                         5.847736       3.027656
                                                         2.494033       2.353227
                                                         0.988355       0.554184
                                                         0.344978       0.019462
                                                         0.099466      -0.000291
                          1       4    3py              10.077428      -3.133913
                                                         5.847736       3.027656
                                                         2.494033       2.353227
                                                         0.988355       0.554184
                                                         0.344978       0.019462
                                                         0.099466      -0.000291
                          1       4    3pz              10.077428      -3.133913
                                                         5.847736       3.027656
                                                         2.494033       2.353227
                                                         0.988355       0.554184
                                                         0.344978       0.019462
                                                         0.099466      -0.000291

                          1       5    4px              10.077428      -0.112729
                                                         5.847736      -0.114008
                                                         2.494033      -0.347303
                                                         0.988355      -0.110323
                                                         0.344978       0.154096
                                                         0.099466       0.058386
                          1       5    4py              10.077428      -0.112729
                                                         5.847736      -0.114008
                                                         2.494033      -0.347303
                                                         0.988355      -0.110323
                                                         0.344978       0.154096
                                                         0.099466       0.058386
                          1       5    4pz              10.077428      -0.112729
                                                         5.847736      -0.114008
                                                         2.494033      -0.347303
                                                         0.988355      -0.110323
                                                         0.344978       0.154096
                                                         0.099466       0.058386

                          1       6    4dx2             10.077428       8.232726
                                                         5.847736       9.105758
                                                         2.494033       2.849835
                                                         0.988355       0.554319
                                                         0.344978       0.067245
                                                         0.099466       0.001940
                          1       6    4dxy             10.077428      14.259500
                                                         5.847736      15.771636
                                                         2.494033       4.936060
                                                         0.988355       0.960109
                                                         0.344978       0.116472
                                                         0.099466       0.003360
                          1       6    4dxz             10.077428      14.259500
                                                         5.847736      15.771636
                                                         2.494033       4.936060
                                                         0.988355       0.960109
                                                         0.344978       0.116472
                                                         0.099466       0.003360
                          1       6    4dy2             10.077428       8.232726
                                                         5.847736       9.105758
                                                         2.494033       2.849835
                                                         0.988355       0.554319
                                                         0.344978       0.067245
                                                         0.099466       0.001940
                          1       6    4dyz             10.077428      14.259500
                                                         5.847736      15.771636
                                                         2.494033       4.936060
                                                         0.988355       0.960109
                                                         0.344978       0.116472
                                                         0.099466       0.003360
                          1       6    4dz2             10.077428       8.232726
                                                         5.847736       9.105758
                                                         2.494033       2.849835
                                                         0.988355       0.554319
                                                         0.344978       0.067245
                                                         0.099466       0.001940

                          1       7    5dx2             10.077428      -2.715373
                                                         5.847736      -4.020640
                                                         2.494033      -1.397569
                                                         0.988355      -0.076143
                                                         0.344978       0.033435
                                                         0.099466       0.026032
                          1       7    5dxy             10.077428      -4.703164
                                                         5.847736      -6.963952
                                                         2.494033      -2.420661
                                                         0.988355      -0.131883
                                                         0.344978       0.057911
                                                         0.099466       0.045088
                          1       7    5dxz             10.077428      -4.703164
                                                         5.847736      -6.963952
                                                         2.494033      -2.420661
                                                         0.988355      -0.131883
                                                         0.344978       0.057911
                                                         0.099466       0.045088
                          1       7    5dy2             10.077428      -2.715373
                                                         5.847736      -4.020640
                                                         2.494033      -1.397569
                                                         0.988355      -0.076143
                                                         0.344978       0.033435
                                                         0.099466       0.026032
                          1       7    5dyz             10.077428      -4.703164
                                                         5.847736      -6.963952
                                                         2.494033      -2.420661
                                                         0.988355      -0.131883
                                                         0.344978       0.057911
                                                         0.099466       0.045088
                          1       7    5dz2             10.077428      -2.715373
                                                         5.847736      -4.020640
                                                         2.494033      -1.397569
                                                         0.988355      -0.076143
                                                         0.344978       0.033435
                                                         0.099466       0.026032

                          1       8    5fx3             10.077428      -0.467694
                                                         5.847736       0.618100
                                                         2.494033       0.066069
                                                         0.988355       0.262898
                                                         0.344978       0.004720
                                                         0.099466       0.007748
                          1       8    5fx2y            10.077428      -1.045795
                                                         5.847736       1.382114
                                                         2.494033       0.147734
                                                         0.988355       0.587859
                                                         0.344978       0.010555
                                                         0.099466       0.017325
                          1       8    5fx2z            10.077428      -1.045795
                                                         5.847736       1.382114
                                                         2.494033       0.147734
                                                         0.988355       0.587859
                                                         0.344978       0.010555
                                                         0.099466       0.017325
                          1       8    5fxy2            10.077428      -1.045795
                                                         5.847736       1.382114
                                                         2.494033       0.147734
                                                         0.988355       0.587859
                                                         0.344978       0.010555
                                                         0.099466       0.017325
                          1       8    5fxyz            10.077428      -1.811371
                                                         5.847736       2.393892
                                                         2.494033       0.255883
                                                         0.988355       1.018201
                                                         0.344978       0.018282
                                                         0.099466       0.030008
                          1       8    5fxz2            10.077428      -1.045795
                                                         5.847736       1.382114
                                                         2.494033       0.147734
                                                         0.988355       0.587859
                                                         0.344978       0.010555
                                                         0.099466       0.017325
                          1       8    5fy3             10.077428      -0.467694
                                                         5.847736       0.618100
                                                         2.494033       0.066069
                                                         0.988355       0.262898
                                                         0.344978       0.004720
                                                         0.099466       0.007748
                          1       8    5fy2z            10.077428      -1.045795
                                                         5.847736       1.382114
                                                         2.494033       0.147734
                                                         0.988355       0.587859
                                                         0.344978       0.010555
                                                         0.099466       0.017325
                          1       8    5fyz2            10.077428      -1.045795
                                                         5.847736       1.382114
                                                         2.494033       0.147734
                                                         0.988355       0.587859
                                                         0.344978       0.010555
                                                         0.099466       0.017325
                          1       8    5fz3             10.077428      -0.467694
                                                         5.847736       0.618100
                                                         2.494033       0.066069
                                                         0.988355       0.262898
                                                         0.344978       0.004720
                                                         0.099466       0.007748

       Atomic covalent radius [Angstrom]:                                  1.150

       Atomic van der Waals radius [Angstrom]:                             1.630

     GTH Potential information for                                   GTH-PBE-q18

       Description:                       Goedecker-Teter-Hutter pseudopotential
                                           Goedecker et al., PRB 54, 1703 (1996)
                                          Hartwigsen et al., PRB 58, 3641 (1998)
                                                      Krack, TCA 114, 145 (2005)

       Gaussian exponent of the core charge distribution:               4.081633
       Electronic configuration (s p d ...):                           4   6   8

       Parameters of the local part of the GTH pseudopotential:

                          rloc        C1          C2          C3          C4
                        0.350000    2.102166    0.648484

       Parameters of the non-local part of the GTH pseudopotential:

                   l      r(l)      h(i,j,l)

                   0    0.261295    0.622658    9.970227
                                    9.970227  -12.871507
                   1    0.224253  -11.142708   12.429566
                                   12.429566  -14.706861
                   2    0.215348  -12.628146


 MOLECULE KIND INFORMATION


 All atoms are their own molecule, skipping detailed information


 TOTAL NUMBERS AND MAXIMUM NUMBERS

  Total number of            - Atomic kinds:                                   2
                             - Atoms:                                         32
                             - Shell sets:                                    32
                             - Shells:                                       256
                             - Primitive Cartesian functions:                192
                             - Cartesian basis functions:                    992
                             - Spherical basis functions:                    832

  Maximum angular momentum of- Orbital basis functions:                        3
                             - Local part of the GTH pseudopotential:          2
                             - Non-local part of the GTH pseudopotential:      3


 MODULE QUICKSTEP: ATOMIC COORDINATES IN ANGSTROM

   Atom Kind Element         X             Y             Z       Z(eff)     Mass
      1    1 Ni   28      0.876298      0.876298      7.370500  18.0000  58.6934
      2    1 Ni   28      0.876298      4.382298      7.370500  18.0000  58.6934
      3    1 Ni   28      2.629298      2.629298      7.370500  18.0000  58.6934
      4    1 Ni   28      2.629298      6.135298      7.370500  18.0000  58.6934
      5    1 Ni   28      4.382298      0.876298      7.370500  18.0000  58.6934
      6    1 Ni   28      4.382298      4.382298      7.370500  18.0000  58.6934
      7    1 Ni   28      6.135298      2.629298      7.370500  18.0000  58.6934
      8    1 Ni   28      6.135298      6.135298      7.370500  18.0000  58.6934
      9    2 Ni   28      0.876298      2.629298      9.123500  18.0000  58.6934
     10    2 Ni   28      0.876298      6.135298      9.123500  18.0000  58.6934
     11    2 Ni   28      2.629298      0.876298      9.123500  18.0000  58.6934
     12    2 Ni   28      2.629298      4.382298      9.123500  18.0000  58.6934
     13    2 Ni   28      4.382298      2.629298      9.123500  18.0000  58.6934
     14    2 Ni   28      4.382298      6.135298      9.123500  18.0000  58.6934
     15    2 Ni   28      6.135298      0.876298      9.123500  18.0000  58.6934
     16    2 Ni   28      6.135298      4.382298      9.123500  18.0000  58.6934
     17    2 Ni   28      0.876298      0.876298     10.876500  18.0000  58.6934
     18    2 Ni   28      0.876298      4.382298     10.876500  18.0000  58.6934
     19    2 Ni   28      2.629298      2.629298     10.876500  18.0000  58.6934
     20    2 Ni   28      2.629298      6.135298     10.876500  18.0000  58.6934
     21    2 Ni   28      4.382298      0.876298     10.876500  18.0000  58.6934
     22    2 Ni   28      4.382298      4.382298     10.876500  18.0000  58.6934
     23    2 Ni   28      6.135298      2.629298     10.876500  18.0000  58.6934
     24    2 Ni   28      6.135298      6.135298     10.876500  18.0000  58.6934
     25    1 Ni   28      0.876298      2.629298     12.629500  18.0000  58.6934
     26    1 Ni   28      0.876298      6.135298     12.629500  18.0000  58.6934
     27    1 Ni   28      2.629298      0.876298     12.629500  18.0000  58.6934
     28    1 Ni   28      2.629298      4.382298     12.629500  18.0000  58.6934
     29    1 Ni   28      4.382298      2.629298     12.629500  18.0000  58.6934
     30    1 Ni   28      4.382298      6.135298     12.629500  18.0000  58.6934
     31    1 Ni   28      6.135298      0.876298     12.629500  18.0000  58.6934
     32    1 Ni   28      6.135298      4.382298     12.629500  18.0000  58.6934



 SCF PARAMETERS         Density guess:                                    ATOMIC
                        --------------------------------------------------------
                        max_scf:                                             500
                        max_scf_history:                                       0
                        max_diis:                                              4
                        --------------------------------------------------------
                        eps_scf:                                        1.00E-03
                        eps_scf_history:                                0.00E+00
                        eps_diis:                                       1.00E-01
                        eps_eigval:                                     1.00E-05
                        --------------------------------------------------------
                        level_shift [a.u.]:                             0.000000
                        added MOs                                       534  553
                        --------------------------------------------------------
                        Mixing method:                            BROYDEN_MIXING
                                                charge density mixing in g-space
                        --------------------------------------------------------
                        Smear method:                                FERMI_DIRAC
                        Electronic temperature [K]:                        700.0
                        Electronic temperature [a.u.]:                  2.22E-03
                        Accuracy threshold:                             1.00E-10
                        --------------------------------------------------------
                        No outer SCF

 PW_GRID| Information for grid number                                          1
 PW_GRID| Grid distributed over                                   128 processors
 PW_GRID| Real space group dimensions                                     8   16
 PW_GRID| the grid is blocked:                                               YES
 PW_GRID| Cutoff [a.u.]                                                    300.0
 PW_GRID| spherical cutoff:                                                   NO
 PW_GRID|   Bounds   1            -54      53                Points:         108
 PW_GRID|   Bounds   2            -54      53                Points:         108
 PW_GRID|   Bounds   3           -150     149                Points:         300
 PW_GRID| Volume element (a.u.^3)  0.1896E-02     Volume (a.u.^3)      6635.2971
 PW_GRID| Grid span                                                    FULLSPACE
 PW_GRID|   Distribution                         Average         Max         Min
 PW_GRID|   G-Vectors                            27337.5       28728       25272
 PW_GRID|   G-Rays                                 253.1         266         234
 PW_GRID|   Real Space Points                    27337.5       28728       25272

 PW_GRID| Information for grid number                                          2
 PW_GRID| Number of the reference grid                                         1
 PW_GRID| Grid distributed over                                   128 processors
 PW_GRID| Real space group dimensions                                     8   16
 PW_GRID| the grid is blocked:                                                NO
 PW_GRID| Cutoff [a.u.]                                                    100.0
 PW_GRID| spherical cutoff:                                                   NO
 PW_GRID|   Bounds   1            -30      29                Points:          60
 PW_GRID|   Bounds   2            -30      29                Points:          60
 PW_GRID|   Bounds   3            -90      89                Points:         180
 PW_GRID| Volume element (a.u.^3)  0.1024E-01     Volume (a.u.^3)      6635.2971
 PW_GRID| Grid span                                                    FULLSPACE
 PW_GRID|   Distribution                         Average         Max         Min
 PW_GRID|   G-Vectors                             5062.5       15960           0
 PW_GRID|   G-Rays                                  84.4         266           0
 PW_GRID|   Real Space Points                     5062.5        5760        3780

 PW_GRID| Information for grid number                                          3
 PW_GRID| Number of the reference grid                                         1
 PW_GRID| Grid distributed over                                   128 processors
 PW_GRID| Real space group dimensions                                     8   16
 PW_GRID| the grid is blocked:                                                NO
 PW_GRID| Cutoff [a.u.]                                                     33.3
 PW_GRID| spherical cutoff:                                                   NO
 PW_GRID|   Bounds   1            -18      17                Points:          36
 PW_GRID|   Bounds   2            -18      17                Points:          36
 PW_GRID|   Bounds   3            -50      49                Points:         100
 PW_GRID| Volume element (a.u.^3)  0.5120E-01     Volume (a.u.^3)      6635.2971
 PW_GRID| Grid span                                                    FULLSPACE
 PW_GRID|   Distribution                         Average         Max         Min
 PW_GRID|   G-Vectors                             1012.5        9576           0
 PW_GRID|   G-Rays                                  28.1         266           0
 PW_GRID|   Real Space Points                     1012.5        1500         800

 PW_GRID| Information for grid number                                          4
 PW_GRID| Number of the reference grid                                         1
 PW_GRID| Grid distributed over                                   128 processors
 PW_GRID| Real space group dimensions                                     8   16
 PW_GRID| the grid is blocked:                                                NO
 PW_GRID| Cutoff [a.u.]                                                     11.1
 PW_GRID| spherical cutoff:                                                   NO
 PW_GRID|   Bounds   1            -10       9                Points:          20
 PW_GRID|   Bounds   2            -10       9                Points:          20
 PW_GRID|   Bounds   3            -30      29                Points:          60
 PW_GRID| Volume element (a.u.^3)  0.2765         Volume (a.u.^3)      6635.2971
 PW_GRID| Grid span                                                    FULLSPACE
 PW_GRID|   Distribution                         Average         Max         Min
 PW_GRID|   G-Vectors                              187.5        3800           0
 PW_GRID|   G-Rays                                   9.4         190           0
 PW_GRID|   Real Space Points                      187.5         360         120

 PW_GRID| Information for grid number                                          5
 PW_GRID| Number of the reference grid                                         1
 PW_GRID| Grid distributed over                                   128 processors
 PW_GRID| Real space group dimensions                                     8   16
 PW_GRID| the grid is blocked:                                                NO
 PW_GRID| Cutoff [a.u.]                                                      3.7
 PW_GRID| spherical cutoff:                                                   NO
 PW_GRID|   Bounds   1             -6       5                Points:          12
 PW_GRID|   Bounds   2             -6       5                Points:          12
 PW_GRID|   Bounds   3            -18      17                Points:          36
 PW_GRID| Volume element (a.u.^3)   1.280         Volume (a.u.^3)      6635.2971
 PW_GRID| Grid span                                                    FULLSPACE
 PW_GRID|   Distribution                         Average         Max         Min
 PW_GRID|   G-Vectors                               40.5        1296           0
 PW_GRID|   G-Rays                                   3.4         108           0
 PW_GRID|   Real Space Points                       40.5          72           0

 POISSON| Solver                                                        PERIODIC
 POISSON| Periodicity                                                        XYZ

 RS_GRID| Information for grid number                                          1
 RS_GRID|   Bounds   1            -54      53                Points:         108
 RS_GRID|   Bounds   2            -54      53                Points:         108
 RS_GRID|   Bounds   3           -150     149                Points:         300
 RS_GRID| Real space distribution over                                  8 groups
 RS_GRID| Real space distribution along direction                              2
 RS_GRID| Border size                                                         28
 RS_GRID| Real space distribution over                                 16 groups
 RS_GRID| Real space distribution along direction                              3
 RS_GRID| Border size                                                         28
 RS_GRID|   Distribution                         Average         Max         Min
 RS_GRID|   Planes                                  69.5          70          69
 RS_GRID|   Distribution                         Average         Max         Min
 RS_GRID|   Planes                                  74.8          75          74

 RS_GRID| Information for grid number                                          2
 RS_GRID|   Bounds   1            -30      29                Points:          60
 RS_GRID|   Bounds   2            -30      29                Points:          60
 RS_GRID|   Bounds   3            -90      89                Points:         180
 RS_GRID| Real space fully replicated
 RS_GRID| Group size                                                           1

 RS_GRID| Information for grid number                                          3
 RS_GRID|   Bounds   1            -18      17                Points:          36
 RS_GRID|   Bounds   2            -18      17                Points:          36
 RS_GRID|   Bounds   3            -50      49                Points:         100
 RS_GRID| Real space fully replicated
 RS_GRID| Group size                                                           1

 RS_GRID| Information for grid number                                          4
 RS_GRID|   Bounds   1            -10       9                Points:          20
 RS_GRID|   Bounds   2            -10       9                Points:          20
 RS_GRID|   Bounds   3            -30      29                Points:          60
 RS_GRID| Real space fully replicated
 RS_GRID| Group size                                                           1

 RS_GRID| Information for grid number                                          5
 RS_GRID|   Bounds   1             -6       5                Points:          12
 RS_GRID|   Bounds   2             -6       5                Points:          12
 RS_GRID|   Bounds   3            -18      17                Points:          36
 RS_GRID| Real space fully replicated
 RS_GRID| Group size                                                           1

 Spin 1

 Number of electrons:                                                        297.600
 Number of occupied orbitals:                                                298
 Number of molecular orbitals:                                               832

 Spin 2

 Number of electrons:                                                        278.400
 Number of occupied orbitals:                                                279
 Number of molecular orbitals:                                               832

 Number of orbital functions:                                                832
 Number of independent orbital functions:                                    832

 Extrapolation method: initial_guess

 Atomic guess: The first density matrix is obtained in terms of atomic orbitals
               and electronic configurations assigned to each atomic kind

 Guess for atomic kind: Ni_i

 Electronic structure
    Total number of core electrons                                         10.00
    Total number of valence electrons                                      18.00
    Total number of electrons                                              28.00
    Multiplicity                                                         doublet
    Alpha Electrons
    S   [  1.00  1.00] 1.00  1.00
    P   [  3.00] 3.00
    D      4.35
    Beta Electrons
    S   [  1.00  1.00] 1.00  1.00
    P   [  3.00] 3.00
    D      3.65


 *******************************************************************************
                  Iteration          Convergence                     Energy [au]
 *******************************************************************************
                          1         1.51729                    -167.067424631347
                          2         15.3902                    -156.642654318634
                          3         2.33433                    -168.319355313541
                          4        0.206730                    -168.609905008081
                          5        0.814175E-01                -168.612873080494
                          6        0.173318E-01                -168.613470181066
                          7        0.290432E-02                -168.613543571401
                          8        0.311825E-02                -168.613543401474
                          9        0.179670E-03                -168.613544404477
                         10        0.169386E-02                -168.613544207811
                         11        0.473341E-03                -168.613544360253
                         12        0.165417E-03                -168.613544400419
                         13        0.162622E-03                -168.613544401489
                         14        0.158325E-03                -168.613544403900
                         15        0.177007E-03                -168.613544402509
                         16        0.138916E-03                -168.613544404900
                         17        0.934549E-04                -168.613544406149
                         18        0.119916E-03                -168.613544405789
                         19        0.131607E-03                -168.613544405591
                         20        0.169309E-03                -168.613544404773
                         21        0.551337E-04                -168.613544406656
                         22        0.382664E-04                -168.613544406759
                         23        0.378942E-04                -168.613544406765
                         24        0.381089E-04                -168.613544406765
                         25        0.390835E-04                -168.613544406759
                         26        0.308614E-04                -168.613544406841
                         27        0.205044E-04                -168.613544406892
                         28        0.200942E-04                -168.613544406893
                         29        0.199375E-04                -168.613544406893
                         30        0.200198E-04                -168.613544406894
                         31        0.161325E-04                -168.613544406903
                         32        0.330614E-05                -168.613544406925
                         33        0.238713E-05                -168.613544406926
                         34        0.265439E-05                -168.613544406926
                         35        0.277073E-05                -168.613544406926
                         36        0.335175E-05                -168.613544406926
                         37        0.148809E-05                -168.613544406927
                         38        0.133447E-05                -168.613544406927
                         39        0.918735E-06                -168.613544406927

 Energy components [Hartree]           Total Energy ::         -168.613544406927
                                        Band Energy ::          -26.569761966525
                                     Kinetic Energy ::           97.306723392622
                                   Potential Energy ::         -265.920267799548
                                      Virial (-V/T) ::            2.732804666812
                                        Core Energy ::         -299.567979157577
                                          XC Energy ::          -16.227189041387
                                     Coulomb Energy ::          147.181623792037
                       Total Pseudopotential Energy ::         -396.961043505191
                       Local Pseudopotential Energy ::         -362.648291121960
                    Nonlocal Pseudopotential Energy ::          -34.312752383230
                                        Confinement ::            0.863409549921

 Orbital energies  State     Spin  L     Occupation   Energy[a.u.]    Energy[eV]

                       1    alpha  0          1.000      -4.172666   -113.544030
                       2    alpha  0          1.000      -0.181431     -4.936983
                       1     beta  0          1.000      -4.140640   -112.672541
                       2     beta  0          1.000      -0.176372     -4.799339

                       1    alpha  1          3.000      -2.578739    -70.171064
                       1     beta  1          3.000      -2.547579    -69.323162

                       1    alpha  2          4.350      -0.327039     -8.899191
                       1     beta  2          3.650      -0.300569     -8.178887


 Total Electron Density at R=0:                                         0.030422

 Guess for atomic kind: Ni_b

 Electronic structure
    Total number of core electrons                                         10.00
    Total number of valence electrons                                      18.00
    Total number of electrons                                              28.00
    Multiplicity                                                         doublet
    Alpha Electrons
    S   [  1.00  1.00] 1.00  1.00
    P   [  3.00] 3.00
    D      4.25
    Beta Electrons
    S   [  1.00  1.00] 1.00  1.00
    P   [  3.00] 3.00
    D      3.75


 *******************************************************************************
                  Iteration          Convergence                     Energy [au]
 *******************************************************************************
                          1         1.51687                    -167.065012761055
                          2         14.9817                    -156.620431300845
                          3         2.25575                    -168.317311438693
                          4        0.189210                    -168.607926092750
                          5        0.708658E-01                -168.610773319290
                          6        0.122256E-01                -168.611238205502
                          7        0.598421E-02                -168.611272268995
                          8        0.528277E-02                -168.611272438110
                          9        0.104644E-02                -168.611275321653
                         10        0.260234E-02                -168.611274926630
                         11        0.975322E-03                -168.611275328217
                         12        0.161067E-03                -168.611275447773
                         13        0.147413E-03                -168.611275446839
                         14        0.115114E-03                -168.611275449434
                         15        0.167217E-03                -168.611275445436
                         16        0.255374E-04                -168.611275450531
                         17        0.418369E-04                -168.611275450414
                         18        0.393709E-04                -168.611275450477
                         19        0.239931E-04                -168.611275450542
                         20        0.173885E-04                -168.611275450557
                         21        0.851368E-05                -168.611275450578
                         22        0.849928E-05                -168.611275450580
                         23        0.544937E-05                -168.611275450584
                         24        0.540003E-05                -168.611275450586
                         25        0.613371E-05                -168.611275450584
                         26        0.311593E-06                -168.611275450588

 Energy components [Hartree]           Total Energy ::         -168.611275450588
                                        Band Energy ::          -26.568680144499
                                     Kinetic Energy ::           97.303659243130
                                   Potential Energy ::         -265.914934693718
                                      Virial (-V/T) ::            2.732835915546
                                        Core Energy ::         -299.566189183323
                                          XC Energy ::          -16.224592878785
                                     Coulomb Energy ::          147.179506611520
                       Total Pseudopotential Energy ::         -396.956189041778
                       Local Pseudopotential Energy ::         -362.645043136649
                    Nonlocal Pseudopotential Energy ::          -34.311145905129
                                        Confinement ::            0.863406153250

 Orbital energies  State     Spin  L     Occupation   Energy[a.u.]    Energy[eV]

                       1    alpha  0          1.000      -4.168335   -113.426177
                       2    alpha  0          1.000      -0.180730     -4.917906
                       1     beta  0          1.000      -4.145459   -112.803683
                       2     beta  0          1.000      -0.177117     -4.819606

                       1    alpha  1          3.000      -2.574525    -70.056390
                       1     beta  1          3.000      -2.552268    -69.450746

                       1    alpha  2          4.250      -0.323446     -8.801405
                       1     beta  2          3.750      -0.304537     -8.286881


 Total Electron Density at R=0:                                         0.030429

 Spin 1
 Re-scaling the density matrix to get the right number of electrons for spin 1
                  # Electrons              Trace(P)               Scaling factor
                        297.600             297.600                        1.000

 Spin 2
 Re-scaling the density matrix to get the right number of electrons for spin 2
                  # Electrons              Trace(P)               Scaling factor
                        278.400             278.400                        1.000


 SCF WAVEFUNCTION OPTIMIZATION

  Step     Update method      Time    Convergence         Total energy    Change
  ------------------------------------------------------------------------------
     1 NoMix/Diag. 0.80E-01    1.8     0.87424970     -5426.4441344177 -5.43E+03
     2 Broy./Diag. 0.80E-01    1.5     0.01478317     -5316.2355215718  1.10E+02
[...]
   125 Broy./Diag. 0.80E-01    1.5     0.08339429     -5418.1109467702 -1.60E+00
   126 Broy./Diag. 0.80E-01    1.5     0.06487240     -5417.4798984333  6.31E-01
   127 Broy./Diag. 0.80E-01    1.5     0.07662371     -5417.8022819412 -3.22E-01
   128 Broy./Diag. 0.80E-01    1.5     0.03233693     -5417.9048365714 -1.03E-01
   129 Broy./Diag. 0.80E-01    1.5     0.02841898     -5416.1979825207  1.71E+00
   130 Broy./Diag. 0.80E-01    1.5     0.01284928     -5417.4899806006 -1.29E+00
   131 Broy./Diag. 0.80E-01    1.5     0.09253434     -5416.9193689302  5.71E-01
   132 Broy./Diag. 0.80E-01    1.5     0.10396362     -5415.7577597510  1.16E+00
   133 Broy./Diag. 0.80E-01    1.5     0.06926522     -5416.6560852786 -8.98E-01
   134 Broy./Diag. 0.80E-01    1.5     0.01164281     -5416.3960316715  2.60E-01
   135 Broy./Diag. 0.80E-01    1.5     0.12822264     -5416.5145594902 -1.19E-01
   136 Broy./Diag. 0.80E-01    1.5     0.10834247     -5417.8570894312 -1.34E+00
   137 Broy./Diag. 0.80E-01    1.5     0.02140695     -5418.3709504803 -5.14E-01
   138 Broy./Diag. 0.80E-01    1.5     0.05968232     -5418.3406518146  3.03E-02
   139 Broy./Diag. 0.80E-01    1.5     0.04283959     -5419.0662928316 -7.26E-01
   140 Broy./Diag. 0.80E-01    1.5     0.03050607     -5418.7145657462  3.52E-01
   141 Broy./Diag. 0.80E-01    1.5     0.08598267     -5419.8125762304 -1.10E+00
   142 Broy./Diag. 0.80E-01    1.5     0.05746120     -5422.1854785710 -2.37E+00
   143 Broy./Diag. 0.80E-01    1.5     0.07229418     -5422.6930020047 -5.08E-01
   144 Broy./Diag. 0.80E-01    1.5     0.02911206     -5422.9917777903 -2.99E-01
   145 Broy./Diag. 0.80E-01    1.5     0.03110655     -5421.0524338636  1.94E+00
   146 Broy./Diag. 0.80E-01    1.6     0.04860032     -5421.9150340167 -8.63E-01
   147 Broy./Diag. 0.80E-01    1.5     0.03139813     -5422.9186733966 -1.00E+00
   148 Broy./Diag. 0.80E-01    1.5     0.02776811     -5422.2110223330  7.08E-01
   149 Broy./Diag. 0.80E-01    1.5     0.08786033     -5422.0053736080  2.06E-01
   150 Broy./Diag. 0.80E-01    1.5     0.04072539     -5421.0515972823  9.54E-01
   151 Broy./Diag. 0.80E-01    1.5     0.02702727     -5419.5573991420  1.49E+00
   152 Broy./Diag. 0.80E-01    1.5     0.11752480     -5420.9021873594 -1.34E+00
   153 Broy./Diag. 0.80E-01    1.5     0.10240222     -5420.4701209699  4.32E-01
   154 Broy./Diag. 0.80E-01    1.5     0.14554112     -5422.1531334666 -1.68E+00
   155 Broy./Diag. 0.80E-01    1.5     0.05444694     -5420.1818204460  1.97E+00
   156 Broy./Diag. 0.80E-01    1.5     0.03107673     -5422.3861305179 -2.20E+00
   157 Broy./Diag. 0.80E-01    1.5     0.04755947     -5422.4083783260 -2.22E-02
   158 Broy./Diag. 0.80E-01    1.5     0.02558723     -5422.0128249132  3.96E-01
   159 Broy./Diag. 0.80E-01    1.5     0.03172796     -5422.4077910199 -3.95E-01
   160 Broy./Diag. 0.80E-01    1.5     0.18462660     -5422.0499164947  3.58E-01
   161 Broy./Diag. 0.80E-01    1.5     0.09298909     -5419.6753168814  2.37E+00
   162 Broy./Diag. 0.80E-01    1.5     0.08319973     -5419.4516494345  2.24E-01
   163 Broy./Diag. 0.80E-01    1.5     0.04007015     -5420.4956744751 -1.04E+00
   164 Broy./Diag. 0.80E-01    1.5     0.08748433     -5421.4822962072 -9.87E-01
   165 Broy./Diag. 0.80E-01    1.5     0.09425943     -5416.4391912352  5.04E+00
   166 Broy./Diag. 0.80E-01    1.5     0.11127812     -5419.2393850260 -2.80E+00
   167 Broy./Diag. 0.80E-01    1.5     0.04178761     -5417.7195614408  1.52E+00
   168 Broy./Diag. 0.80E-01    1.5     0.07304243     -5420.6817340267 -2.96E+00
   169 Broy./Diag. 0.80E-01    1.5     0.10097807     -5421.2629086637 -5.81E-01
   170 Broy./Diag. 0.80E-01    1.5     0.02241388     -5408.0912698190  1.32E+01
   171 Broy./Diag. 0.80E-01    1.5     0.12659966     -5408.5982047232 -5.07E-01
   172 Broy./Diag. 0.80E-01    1.5     0.16815136     -5416.6418112671 -8.04E+00
   173 Broy./Diag. 0.80E-01    1.5     0.10607198     -5423.8580434838 -7.22E+00
   174 Broy./Diag. 0.80E-01    1.5     0.06623513     -5423.1550499801  7.03E-01
   175 Broy./Diag. 0.80E-01    1.5     0.13594716     -5422.5261849344  6.29E-01
   176 Broy./Diag. 0.80E-01    1.5     0.04134622     -5421.0857328212  1.44E+00
   177 Broy./Diag. 0.80E-01    1.5     0.10270769     -5423.2410904753 -2.16E+00
   178 Broy./Diag. 0.80E-01    1.5     0.02241018     -5421.0737231202  2.17E+00
   179 Broy./Diag. 0.80E-01    1.5     0.05173609     -5420.5022936397  5.71E-01
   180 Broy./Diag. 0.80E-01    1.5     0.02642121     -5417.8693744563  2.63E+00
   181 Broy./Diag. 0.80E-01    1.5     0.02036038     -5417.6953871305  1.74E-01
   182 Broy./Diag. 0.80E-01    1.5     0.05068801     -5420.1085313841 -2.41E+00
   183 Broy./Diag. 0.80E-01    1.5     0.03912342     -5419.6206932471  4.88E-01
   184 Broy./Diag. 0.80E-01    1.5     0.02187819     -5420.3799674864 -7.59E-01
   185 Broy./Diag. 0.80E-01    1.5     0.11528250     -5417.7474678736  2.63E+00
   186 Broy./Diag. 0.80E-01    1.5     0.14053641     -5415.4723907783  2.28E+00
   187 Broy./Diag. 0.80E-01    1.5     0.13012498     -5413.0390041326  2.43E+00
   188 Broy./Diag. 0.80E-01    1.5     0.13036277     -5407.4799581672  5.56E+00
   189 Broy./Diag. 0.80E-01    1.5     0.01586345     -5419.9546578649 -1.25E+01
   190 Broy./Diag. 0.80E-01    1.5     0.05840035     -5420.2115680292 -2.57E-01
   191 Broy./Diag. 0.80E-01    1.5     0.13315553     -5421.5572271927 -1.35E+00
   192 Broy./Diag. 0.80E-01    1.5     0.14545581     -5424.2745708953 -2.72E+00
   193 Broy./Diag. 0.80E-01    1.5     0.03900880     -5423.1546656492  1.12E+00
   194 Broy./Diag. 0.80E-01    1.6     0.08009587     -5423.9366223505 -7.82E-01
   195 Broy./Diag. 0.80E-01    1.5     0.13590401     -5423.6274541680  3.09E-01
   196 Broy./Diag. 0.80E-01    1.5     0.04309103     -5424.0765272589 -4.49E-01
   197 Broy./Diag. 0.80E-01    1.5     0.09387347     -5423.5255802079  5.51E-01
   198 Broy./Diag. 0.80E-01    1.5     0.02881546     -5417.3573734369  6.17E+00
   199 Broy./Diag. 0.80E-01    1.5     0.06157983     -5418.9460865446 -1.59E+00
   200 Broy./Diag. 0.80E-01    1.5     0.06284802     -5412.7120017761  6.23E+00
   201 Broy./Diag. 0.80E-01    1.5     0.11912231     -5412.4505986427  2.61E-01
   202 Broy./Diag. 0.80E-01    1.5     0.07306614     -5418.7623910581 -6.31E+00
   203 Broy./Diag. 0.80E-01    1.5     0.03597272     -5416.4173419608  2.35E+00
   204 Broy./Diag. 0.80E-01    1.5     0.07736941     -5414.3113250298  2.11E+00
   205 Broy./Diag. 0.80E-01    1.5     0.10860442     -5408.9089566597  5.40E+00
   206 Broy./Diag. 0.80E-01    1.5     0.12430615     -5410.7121461480 -1.80E+00
   207 Broy./Diag. 0.80E-01    1.5     0.12413011     -5408.6179603787  2.09E+00
   208 Broy./Diag. 0.80E-01    1.5     0.02574492     -5407.3354248077  1.28E+00
   209 Broy./Diag. 0.80E-01    1.5     0.08020738     -5408.1597908686 -8.24E-01
   210 Broy./Diag. 0.80E-01    1.5     0.05614891     -5410.3099095709 -2.15E+00
   211 Broy./Diag. 0.80E-01    1.5     0.05145137     -5414.7301708436 -4.42E+00
   212 Broy./Diag. 0.80E-01    1.5     0.07582012     -5413.9247441604  8.05E-01
   213 Broy./Diag. 0.80E-01    1.5     0.16216783     -5420.3397646195 -6.42E+00
   214 Broy./Diag. 0.80E-01    1.5     0.45942123     -5418.8991554157  1.44E+00
   215 Broy./Diag. 0.80E-01    1.5     0.05283633     -5420.8552826078 -1.96E+00
   216 Broy./Diag. 0.80E-01    1.5     0.23161084     -5420.4873110796  3.68E-01
   217 Broy./Diag. 0.80E-01    1.5     0.25299719     -5417.5575259780  2.93E+00
   218 Broy./Diag. 0.80E-01    1.5     0.07950571     -5420.9090546489 -3.35E+00
   219 Broy./Diag. 0.80E-01    1.5     0.19427817     -5421.9148759491 -1.01E+00
   220 Broy./Diag. 0.80E-01    1.5     0.21726499     -5422.1318848382 -2.17E-01
   221 Broy./Diag. 0.80E-01    1.5     0.07734891     -5408.9765647477  1.32E+01
   222 Broy./Diag. 0.80E-01    1.5     0.18802636     -5407.7548750461  1.22E+00
   223 Broy./Diag. 0.80E-01    1.5     0.27065084     -5408.5388582628 -7.84E-01
   224 Broy./Diag. 0.80E-01    1.5     0.34364964     -5412.8784288878 -4.34E+00
   225 Broy./Diag. 0.80E-01    1.5     0.07779848     -5411.7878933161  1.09E+00
   226 Broy./Diag. 0.80E-01    1.5     0.10848581     -5408.5414314190  3.25E+00
   227 Broy./Diag. 0.80E-01    1.5     0.03336384     -5419.0356800939 -1.05E+01
   228 Broy./Diag. 0.80E-01    1.5     0.07686938     -5418.8679056683  1.68E-01
   229 Broy./Diag. 0.80E-01    1.5     0.10522533     -5420.1962520870 -1.33E+00
   230 Broy./Diag. 0.80E-01    1.5     0.12919743     -5417.2062894145  2.99E+00
   231 Broy./Diag. 0.80E-01    1.5     0.09838476     -5412.4988860964  4.71E+00
   232 Broy./Diag. 0.80E-01    1.5     0.13499320     -5412.8253250258 -3.26E-01
   233 Broy./Diag. 0.80E-01    1.5     0.13010778     -5414.5741173501 -1.75E+00
   234 Broy./Diag. 0.80E-01    1.5     0.02884039     -5415.1782588008 -6.04E-01
   235 Broy./Diag. 0.80E-01    1.5     0.37425550     -5414.4732183524  7.05E-01
   236 Broy./Diag. 0.80E-01    1.5     0.02864397     -5418.6333037221 -4.16E+00
   237 Broy./Diag. 0.80E-01    1.5     0.12414561     -5419.4031411895 -7.70E-01
   238 Broy./Diag. 0.80E-01    1.5     0.17316472     -5418.4682699170  9.35E-01
   239 Broy./Diag. 0.80E-01    1.5     0.05141784     -5418.8696190333 -4.01E-01
   240 Broy./Diag. 0.80E-01    1.5     0.07423526     -5418.5132005238  3.56E-01
   241 Broy./Diag. 0.80E-01    1.5     0.05093841     -5419.1564442623 -6.43E-01
   242 Broy./Diag. 0.80E-01    1.5     0.30159551     -5417.6670056522  1.49E+00
   243 Broy./Diag. 0.80E-01    1.5     0.08984671     -5418.9021430917 -1.24E+00
   244 Broy./Diag. 0.80E-01    1.5     0.22015914     -5416.9534904619  1.95E+00
   245 Broy./Diag. 0.80E-01    1.5     0.07396311     -5417.0418973262 -8.84E-02
   246 Broy./Diag. 0.80E-01    1.5     0.03592244     -5418.0397713630 -9.98E-01
   247 Broy./Diag. 0.80E-01    1.5     0.29639167     -5416.4581511618  1.58E+00
   248 Broy./Diag. 0.80E-01    1.5     0.37155068     -5414.5420765648  1.92E+00
   249 Broy./Diag. 0.80E-01    1.5     0.11579596     -5415.7739025891 -1.23E+00
   250 Broy./Diag. 0.80E-01    1.5     0.08490225     -5420.2566920858 -4.48E+00
   251 Broy./Diag. 0.80E-01    1.5     0.09902846     -5418.0376567058  2.22E+00
   252 Broy./Diag. 0.80E-01    1.5     0.09620661     -5418.7622946060 -7.25E-01
   253 Broy./Diag. 0.80E-01    1.5     0.19058013     -5418.5626764063  2.00E-01
   254 Broy./Diag. 0.80E-01    1.5     0.14451060     -5418.9903746628 -4.28E-01
   255 Broy./Diag. 0.80E-01    1.5     0.10430096     -5419.3370461599 -3.47E-01
   256 Broy./Diag. 0.80E-01    1.5     0.13630746     -5417.7844074278  1.55E+00
   257 Broy./Diag. 0.80E-01    1.5     0.30146700     -5414.9072163528  2.88E+00
   258 Broy./Diag. 0.80E-01    1.5     0.16951666     -5415.8960534874 -9.89E-01
   259 Broy./Diag. 0.80E-01    1.5     0.07796641     -5416.9129401725 -1.02E+00
   260 Broy./Diag. 0.80E-01    1.5     0.18235338     -5415.6475702341  1.27E+00
   261 Broy./Diag. 0.80E-01    1.5     0.18238225     -5409.5626095508  6.08E+00
   262 Broy./Diag. 0.80E-01    1.5     0.07861951     -5412.0160297085 -2.45E+00
   263 Broy./Diag. 0.80E-01    1.5     0.10597385     -5410.0496734026  1.97E+00
   264 Broy./Diag. 0.80E-01    1.5     0.36066339     -5408.1187656565  1.93E+00
   265 Broy./Diag. 0.80E-01    1.5     0.27711638     -5404.4737523429  3.65E+00
   266 Broy./Diag. 0.80E-01    1.5     0.20956098     -5410.6323209699 -6.16E+00
   267 Broy./Diag. 0.80E-01    1.5     0.14179824     -5410.2975708924  3.35E-01
   268 Broy./Diag. 0.80E-01    1.5     0.17418938     -5412.1875696812 -1.89E+00
   269 Broy./Diag. 0.80E-01    1.5     0.07745257     -5416.0718252904 -3.88E+00
   270 Broy./Diag. 0.80E-01    1.5     0.08435062     -5414.5995387083  1.47E+00
   271 Broy./Diag. 0.80E-01    1.5     0.30732032     -5414.6485889013 -4.91E-02
   272 Broy./Diag. 0.80E-01    1.5     0.29033930     -5415.9237645274 -1.28E+00
   273 Broy./Diag. 0.80E-01    1.5     0.23110693     -5415.4450271579  4.79E-01
   274 Broy./Diag. 0.80E-01    1.5     0.16266550     -5415.1259153826  3.19E-01
   275 Broy./Diag. 0.80E-01    1.5     0.29735153     -5412.8305521300  2.30E+00
   276 Broy./Diag. 0.80E-01    1.5     0.04178854     -5413.5216764187 -6.91E-01
   277 Broy./Diag. 0.80E-01    1.5     0.15180824     -5413.4906332798  3.10E-02
   278 Broy./Diag. 0.80E-01    1.5     0.11094946     -5413.6791253493 -1.88E-01
   279 Broy./Diag. 0.80E-01    1.5     0.38477063     -5412.9578546604  7.21E-01
   280 Broy./Diag. 0.80E-01    1.5     0.36123575     -5408.3864045082  4.57E+00
   281 Broy./Diag. 0.80E-01    1.5     0.30186816     -5414.0229356993 -5.64E+00
   282 Broy./Diag. 0.80E-01    1.5     0.11735108     -5414.4764366697 -4.54E-01
   283 Broy./Diag. 0.80E-01    1.5     0.19204517     -5414.8698387875 -3.93E-01
   284 Broy./Diag. 0.80E-01    1.5     0.15270166     -5413.7912925788  1.08E+00
   285 Broy./Diag. 0.80E-01    1.5     0.55611208     -5414.5050414480 -7.14E-01
   286 Broy./Diag. 0.80E-01    1.5     0.17937126     -5411.8694813498  2.64E+00
   287 Broy./Diag. 0.80E-01    1.5     0.34908832     -5415.2051168458 -3.34E+00
   288 Broy./Diag. 0.80E-01    1.5     0.31399170     -5415.2019502958  3.17E-03
   289 Broy./Diag. 0.80E-01    1.5     0.52658728     -5414.1584145438  1.04E+00
   290 Broy./Diag. 0.80E-01    1.5     0.02203901     -5415.4562056180 -1.30E+00
   291 Broy./Diag. 0.80E-01    1.5     0.11722050     -5415.5717844283 -1.16E-01
   292 Broy./Diag. 0.80E-01    1.5     0.34945006     -5415.4797226427  9.21E-02
   293 Broy./Diag. 0.80E-01    1.5     0.39723677     -5416.2920516596 -8.12E-01
   294 Broy./Diag. 0.80E-01    1.5     0.04771883     -5413.9529240337  2.34E+00
   295 Broy./Diag. 0.80E-01    1.5     0.05938467     -5415.0139996054 -1.06E+00
   296 Broy./Diag. 0.80E-01    1.5     0.07386216     -5414.9929835189  2.10E-02
   297 Broy./Diag. 0.80E-01    1.5     0.13878675     -5414.7095017265  2.83E-01
   298 Broy./Diag. 0.80E-01    1.5     0.24002618     -5415.7036158344 -9.94E-01
   299 Broy./Diag. 0.80E-01    1.5     0.08990008     -5416.1305963842 -4.27E-01
   300 Broy./Diag. 0.80E-01    1.5     0.19184636     -5416.3395018367 -2.09E-01
   301 Broy./Diag. 0.80E-01    1.5     0.33373826     -5416.4946324872 -1.55E-01
   302 Broy./Diag. 0.80E-01    1.5     0.20966653     -5415.8650033066  6.30E-01
   303 Broy./Diag. 0.80E-01    1.5     0.26775201     -5415.4210636690  4.44E-01
   304 Broy./Diag. 0.80E-01    1.5     0.32630248     -5416.5016848233 -1.08E+00
   305 Broy./Diag. 0.80E-01    1.5     0.25467988     -5415.5379051578  9.64E-01
   306 Broy./Diag. 0.80E-01    1.5     0.37316298     -5415.5415715690 -3.67E-03
   307 Broy./Diag. 0.80E-01    1.5     0.21514802     -5417.3072204781 -1.77E+00
   308 Broy./Diag. 0.80E-01    1.5     0.22485400     -5417.4870894772 -1.80E-01
   309 Broy./Diag. 0.80E-01    1.5     0.14826286     -5418.8175232008 -1.33E+00
   310 Broy./Diag. 0.80E-01    1.5     0.18770638     -5419.6030507342 -7.86E-01
   311 Broy./Diag. 0.80E-01    1.5     0.26756697     -5419.3701159382  2.33E-01
   312 Broy./Diag. 0.80E-01    1.5     0.36530256     -5414.9714996775  4.40E+00
   313 Broy./Diag. 0.80E-01    1.5     0.20428278     -5417.9516168567 -2.98E+00
   314 Broy./Diag. 0.80E-01    1.5     0.19187042     -5418.4590649898 -5.07E-01
   315 Broy./Diag. 0.80E-01    1.5     0.19741741     -5417.5814913959  8.78E-01
   316 Broy./Diag. 0.80E-01    1.5     0.54510363     -5418.9824841747 -1.40E+00
   317 Broy./Diag. 0.80E-01    1.5     0.08051466     -5415.2593748377  3.72E+00
   318 Broy./Diag. 0.80E-01    1.5     0.14582369     -5415.3457598043 -8.64E-02
   319 Broy./Diag. 0.80E-01    1.5     0.10439432     -5415.3781181478 -3.24E-02
   320 Broy./Diag. 0.80E-01    1.5     0.09608174     -5415.9742941333 -5.96E-01
   321 Broy./Diag. 0.80E-01    1.5     0.12020430     -5416.0144298676 -4.01E-02
   322 Broy./Diag. 0.80E-01    1.5     0.05961134     -5417.8028682104 -1.79E+00
   323 Broy./Diag. 0.80E-01    1.5     0.41416661     -5417.5432904351  2.60E-01
   324 Broy./Diag. 0.80E-01    1.5     0.35337269     -5417.8262352655 -2.83E-01
   325 Broy./Diag. 0.80E-01    1.5     0.60371915     -5418.3719682142 -5.46E-01
   326 Broy./Diag. 0.80E-01    1.5     0.45060024     -5416.8808883402  1.49E+00
   327 Broy./Diag. 0.80E-01    1.5     0.33776186     -5419.1643937899 -2.28E+00
   328 Broy./Diag. 0.80E-01    1.5     0.40632557     -5419.5810250030 -4.17E-01
   329 Broy./Diag. 0.80E-01    1.5     0.68119213     -5413.2492391432  6.33E+00
   330 Broy./Diag. 0.80E-01    1.5     0.05021905     -5417.3183695022 -4.07E+00
   331 Broy./Diag. 0.80E-01    1.5     0.09557703     -5417.3785698901 -6.02E-02
   332 Broy./Diag. 0.80E-01    1.5     0.21719578     -5418.2318351818 -8.53E-01
   333 Broy./Diag. 0.80E-01    1.5     0.17990323     -5417.7027307577  5.29E-01
   334 Broy./Diag. 0.80E-01    1.5     0.48155065     -5417.2675813324  4.35E-01
   335 Broy./Diag. 0.80E-01    1.5     0.19509920     -5413.8330809323  3.43E+00
   336 Broy./Diag. 0.80E-01    1.5     0.43606223     -5413.4611121844  3.72E-01
   337 Broy./Diag. 0.80E-01    1.5     0.08834521     -5417.1394233708 -3.68E+00
   338 Broy./Diag. 0.80E-01    1.5     0.19021276     -5415.8212602676  1.32E+00
   339 Broy./Diag. 0.80E-01    1.5     0.19608866     -5410.3067460061  5.51E+00
   340 Broy./Diag. 0.80E-01    1.5     0.20046524     -5410.6818294278 -3.75E-01
   341 Broy./Diag. 0.80E-01    1.5     0.26969831     -5413.4061316091 -2.72E+00
   342 Broy./Diag. 0.80E-01    1.5     0.08529523     -5410.3925957665  3.01E+00
   343 Broy./Diag. 0.80E-01    1.5     0.07045882     -5409.0247048886  1.37E+00
   344 Broy./Diag. 0.80E-01    1.5     0.12124179     -5409.9450829505 -9.20E-01
   345 Broy./Diag. 0.80E-01    1.5     0.02229610     -5413.0939422696 -3.15E+00
   346 Broy./Diag. 0.80E-01    1.5     0.13862795     -5412.3843152370  7.10E-01
   347 Broy./Diag. 0.80E-01    1.5     0.10999608     -5413.8977222278 -1.51E+00
   348 Broy./Diag. 0.80E-01    1.5     0.20658575     -5417.9346503006 -4.04E+00
   349 Broy./Diag. 0.80E-01    1.5     0.10150130     -5419.5206446903 -1.59E+00
   350 Broy./Diag. 0.80E-01    1.5     0.04500503     -5419.8229259497 -3.02E-01
   351 Broy./Diag. 0.80E-01    1.5     0.13724492     -5418.4713838127  1.35E+00
   352 Broy./Diag. 0.80E-01    1.5     0.04673549     -5417.3080054829  1.16E+00
   353 Broy./Diag. 0.80E-01    1.5     0.13158976     -5417.1687059792  1.39E-01
   354 Broy./Diag. 0.80E-01    1.5     0.09300625     -5417.9854506269 -8.17E-01
   355 Broy./Diag. 0.80E-01    1.5     0.19445585     -5418.1124602395 -1.27E-01
   356 Broy./Diag. 0.80E-01    1.5     0.20082662     -5419.3104881983 -1.20E+00
   357 Broy./Diag. 0.80E-01    1.5     0.26707797     -5418.7431428438  5.67E-01
   358 Broy./Diag. 0.80E-01    1.5     0.17874162     -5420.0978099480 -1.35E+00
   359 Broy./Diag. 0.80E-01    1.5     0.29093545     -5420.0418945020  5.59E-02
   360 Broy./Diag. 0.80E-01    1.5     0.19916283     -5421.2122817670 -1.17E+00
   361 Broy./Diag. 0.80E-01    1.5     0.07418477     -5419.2565709052  1.96E+00
   362 Broy./Diag. 0.80E-01    1.5     0.21752041     -5419.9441511345 -6.88E-01
   363 Broy./Diag. 0.80E-01    1.5     0.12940070     -5417.1429090460  2.80E+00
   364 Broy./Diag. 0.80E-01    1.5     0.11885065     -5419.3010309032 -2.16E+00
   365 Broy./Diag. 0.80E-01    1.5     0.31169445     -5419.0613758476  2.40E-01
   366 Broy./Diag. 0.80E-01    1.5     0.01045365     -5419.4302725579 -3.69E-01
   367 Broy./Diag. 0.80E-01    1.5     0.19140858     -5419.8780038326 -4.48E-01
   368 Broy./Diag. 0.80E-01    1.5     0.12045863     -5419.8933554466 -1.54E-02
   369 Broy./Diag. 0.80E-01    1.5     0.06580020     -5420.0975715685 -2.04E-01
   370 Broy./Diag. 0.80E-01    1.5     0.27499641     -5420.0989992716 -1.43E-03
