      60
 i =        1, E =     -7949.3286680203
 Pt        -0.0009140764        0.0001195592        0.0006837855
 Pt        -0.0002881110        0.0001563239       -0.0005026663
 Pt         0.0009518568        0.0002484165        0.0003619221
 Pt         0.0008715642       -0.0003924864        0.0002686299
 Pt        -0.0002617837       -0.0001336427       -0.0019579112
 Pt         0.0005419907       -0.0004897158       -0.0020179602
 Pt         0.0002649421        0.0002509139       -0.0034115335
 Pt         0.0011077914        0.0005387863       -0.0030205153
 Pt         0.0000955467        0.0011928466       -0.0015916432
 Pt        -0.0003018465        0.0004999223       -0.0016232707
 Pt        -0.0004542848       -0.0007982663       -0.0027721580
 Pt        -0.0010969120       -0.0000728452       -0.0028474355
 Ni         0.0001518651       -0.0010493654        0.0000237094
 Ni        -0.0004848450       -0.0009134977        0.0002446620
 Ni         0.0002953497       -0.0017062770       -0.0000663258
 Ni        -0.0007225787       -0.0002417106        0.0016680881
 Pt         0.0013853216       -0.0010448912        0.0004779713
 Pt         0.0000728546        0.0013952250        0.0005377931
 Ni        -0.0016148034       -0.0013065005        0.0023744130
 Ni         0.0013237559        0.0017320945        0.0042062906
 Pt         0.0011133249       -0.0003657493        0.0003536369
 Pt        -0.0017380368        0.0000646518       -0.0001472825
 Pt        -0.0003633932        0.0017924789        0.0006374844
 Pt        -0.0018863786       -0.0009430323        0.0000035068
 Pt         0.0002112453       -0.0000011438        0.0001351778
 Pt         0.0003673685        0.0007969378        0.0001389439
 Ni        -0.0004173077        0.0022037117       -0.0012258126
 Pt         0.0000939242        0.0003903682        0.0001485281
 Pt         0.0006095546        0.0003698498       -0.0001605941
 Pt         0.0002607064        0.0002686316       -0.0003703588
 Ni         0.0030175629       -0.0007464037       -0.0006839298
 Pt         0.0002685284       -0.0002148687        0.0000475102
 Ni        -0.0008171973       -0.0022023243       -0.0009726226
 Pt        -0.0001414358       -0.0000300079        0.0002672904
 Pt         0.0004519222       -0.0000540895       -0.0005111243
 Pt         0.0002219857        0.0002951993        0.0005565282
 Pt         0.0019302207       -0.0013250814        0.0000439831
 Pt         0.0005040149        0.0018429451       -0.0005352921
 Pt         0.0018415958        0.0002035300        0.0001099645
 Pt        -0.0006866874       -0.0007481719       -0.0006138450
 Ni        -0.0016770737       -0.0013517315       -0.0024362391
 Pt         0.0000167591        0.0008583917       -0.0004254777
 Ni        -0.0010602616        0.0002505254       -0.0031930521
 Pt        -0.0008768697       -0.0005027728       -0.0006048541
 Ni        -0.0005191044        0.0002289628       -0.0018942363
 Ni        -0.0007383455        0.0008618996        0.0001497821
 Ni         0.0014962841        0.0004805464        0.0008969493
 Ni        -0.0008328207        0.0012323356        0.0008506708
 Pt         0.0009238643       -0.0000414335        0.0029422094
 Pt         0.0004198758       -0.0008123396        0.0029328203
 Pt         0.0002447483        0.0005001763        0.0016998325
 Pt         0.0000223185        0.0011225937        0.0013829971
 Pt        -0.0012435587        0.0003934755        0.0027722113
 Pt        -0.0003587288        0.0001565987        0.0035186538
 Pt        -0.0004813675       -0.0002958474        0.0021341684
 Pt         0.0002090793       -0.0002935064        0.0019018673
 Pt        -0.0007810328        0.0001894143       -0.0004034752
 Pt        -0.0006615119       -0.0006121072       -0.0007483690
 Pt         0.0003307111        0.0000469704        0.0006739405
 Pt         0.0007348180        0.0002501850       -0.0004831295
      60
 i =        2, E =     -7949.3300085559
 Pt         0.0005577885        0.0000382263       -0.0007454434
 Pt         0.0002987223       -0.0000137722       -0.0011717381
 Pt        -0.0001688838       -0.0002642335       -0.0009694014
 Pt        -0.0002001110        0.0003602197       -0.0009468179
 Pt         0.0004053174        0.0002940339       -0.0009869394
 Pt         0.0003008635        0.0002106555       -0.0004433778
 Pt         0.0006430631       -0.0000371186       -0.0008745217
 Pt         0.0003992382       -0.0000023266        0.0001370474
 Pt        -0.0002384074       -0.0000523028       -0.0004461984
 Pt        -0.0004233996        0.0003658664       -0.0004830440
 Pt        -0.0003650131        0.0002137921       -0.0001589848
 Pt        -0.0005428409       -0.0002074178       -0.0003314170
 Ni        -0.0001806062       -0.0000360629       -0.0004646523
 Ni        -0.0003536068       -0.0006716666       -0.0003997260
 Ni        -0.0012019060       -0.0002109214       -0.0002977003
 Ni        -0.0013294756        0.0002580063        0.0001159386
 Pt         0.0007762137       -0.0001509526        0.0004109807
 Pt         0.0001787739        0.0001057602        0.0000212358
 Ni         0.0002188735        0.0003138500        0.0002230279
 Ni         0.0017257763        0.0018092538        0.0000876653
 Pt         0.0005187799        0.0003379975        0.0004085356
 Pt        -0.0006261362        0.0001845452       -0.0003175561
 Pt         0.0000220889       -0.0002760511       -0.0001611490
 Pt        -0.0008488964        0.0001195712       -0.0002087384
 Pt         0.0001546764        0.0001231129        0.0000476868
 Pt         0.0001681440        0.0004673490       -0.0000915282
 Ni         0.0012593601       -0.0010376060       -0.0017306335
 Pt         0.0001441532        0.0001417895       -0.0000136961
 Pt        -0.0000634671       -0.0000808812        0.0001184189
 Pt         0.0001103375        0.0000691363        0.0001271296
 Ni        -0.0016667530       -0.0003851783       -0.0013971000
 Pt         0.0000541165       -0.0004202911       -0.0003761521
 Ni         0.0010182207        0.0010249775       -0.0015937530
 Pt         0.0001604990        0.0001611120        0.0000721751
 Pt        -0.0000013694        0.0002761726        0.0001959165
 Pt         0.0004153286        0.0004519439       -0.0002481352
 Pt         0.0012691795        0.0000627674        0.0005256880
 Pt         0.0003890014        0.0000558936        0.0003397460
 Pt         0.0012627514        0.0003047555       -0.0000469792
 Pt        -0.0004451848        0.0002758574        0.0000296877
 Ni        -0.0003567432        0.0006177574       -0.0000344386
 Pt         0.0000879940        0.0001411543       -0.0002345562
 Ni        -0.0003910075        0.0001631728        0.0001906664
 Pt        -0.0006093575       -0.0001339271       -0.0001248244
 Ni         0.0000707644       -0.0002966096       -0.0003020537
 Ni        -0.0011188962        0.0001149263        0.0002421173
 Ni         0.0001316190        0.0005003325        0.0000798843
 Ni        -0.0000140141       -0.0012433417        0.0002306387
 Pt         0.0004318114       -0.0002264065        0.0002624816
 Pt         0.0002443131        0.0002353958        0.0002578926
 Pt         0.0005633169        0.0004058743        0.0004621353
 Pt         0.0001795952       -0.0002153782        0.0004059637
 Pt        -0.0003328945        0.0000287504       -0.0000788521
 Pt        -0.0007641760       -0.0000811744        0.0005411801
 Pt        -0.0002217619        0.0002114695        0.0003963593
 Pt        -0.0004783507        0.0003732525        0.0008435513
 Pt         0.0002719050       -0.0002996416        0.0009610475
 Pt        -0.0000772985        0.0005051068        0.0008298976
 Pt        -0.0002723158        0.0000009644        0.0011078749
 Pt        -0.0005724442       -0.0001048217        0.0008300077
      60
 i =        3, E =     -7949.3302950972
 Pt         0.0002297984        0.0000205878       -0.0005448908
 Pt         0.0001084897       -0.0000261456       -0.0006596842
 Pt        -0.0001489559        0.0000959279       -0.0007607112
 Pt        -0.0001057527        0.0001523015       -0.0007202763
 Pt         0.0000678786        0.0001444895       -0.0003898439
 Pt        -0.0000743858        0.0002707417        0.0000093437
 Pt         0.0000508174        0.0000935788       -0.0001717694
 Pt        -0.0001815002       -0.0000362698        0.0003555374
 Pt         0.0001024680       -0.0000904635       -0.0000937584
 Pt         0.0001212682       -0.0000622687       -0.0002523206
 Pt         0.0001728823        0.0002691913        0.0002672160
 Pt         0.0002650182        0.0001204628        0.0001442606
 Ni         0.0000656423       -0.0001881031       -0.0001945479
 Ni        -0.0001798340       -0.0001315964       -0.0002562411
 Ni         0.0002477966       -0.0000463762       -0.0002239491
 Ni        -0.0004415281       -0.0002785079        0.0001592454
 Pt         0.0002645554        0.0001584662       -0.0002352444
 Pt         0.0000451860       -0.0003126243       -0.0000909402
 Ni         0.0000919117        0.0000574949       -0.0000122626
 Ni         0.0008257737       -0.0000169315       -0.0009566058
 Pt         0.0000365496        0.0003360950       -0.0003863741
 Pt        -0.0000635347        0.0003547092       -0.0003081536
 Pt        -0.0000410362       -0.0000747115       -0.0002807129
 Pt        -0.0001732937        0.0000592478       -0.0002433695
 Pt         0.0000394893       -0.0000061163       -0.0000477608
 Pt         0.0000792502        0.0002376743       -0.0002126822
 Ni         0.0000392418        0.0014040930       -0.0018311280
 Pt         0.0000549260       -0.0000129181        0.0000585501
 Pt        -0.0000150360        0.0000909984       -0.0000093206
 Pt         0.0001724804        0.0001253945        0.0000130808
 Ni         0.0010004675        0.0002440329       -0.0015294998
 Pt         0.0001162601       -0.0002058508       -0.0001635230
 Ni        -0.0001829111       -0.0012373087       -0.0018146003
 Pt        -0.0000421298        0.0001932233        0.0001068752
 Pt         0.0003245414        0.0001660254       -0.0001318218
 Pt        -0.0001098143        0.0001889444       -0.0003504553
 Pt         0.0003729054        0.0001146912        0.0004061941
 Pt         0.0002515096       -0.0002425124        0.0002959634
 Pt         0.0001095930        0.0003671716        0.0006078961
 Pt         0.0000073280        0.0001863795        0.0001971127
 Ni        -0.0005409458        0.0000557830        0.0005848274
 Pt         0.0000049883       -0.0002098129        0.0003025836
 Ni         0.0000655402        0.0001908320        0.0002455045
 Pt        -0.0000615238        0.0002540491        0.0002140648
 Ni        -0.0002593015        0.0003465933        0.0004739177
 Ni        -0.0008017884        0.0001592387        0.0000517832
 Ni        -0.0002254243       -0.0000605164       -0.0000674978
 Ni         0.0000750055       -0.0005859454       -0.0000388322
 Pt        -0.0002455799        0.0001094782       -0.0003235819
 Pt        -0.0001529582        0.0001604432       -0.0003338136
 Pt        -0.0002201991       -0.0000300512        0.0000476764
 Pt        -0.0000274727       -0.0000427948       -0.0000273571
 Pt         0.0001039860       -0.0000005829       -0.0005968255
 Pt        -0.0000278486        0.0000445209       -0.0000312189
 Pt        -0.0000442598        0.0001878287       -0.0000977728
 Pt        -0.0001577429        0.0001356196        0.0000082088
 Pt         0.0000423147        0.0000749549        0.0006132204
 Pt         0.0001922558        0.0001406315        0.0004726405
 Pt        -0.0002742642        0.0000313855        0.0004772541
 Pt        -0.0002695993        0.0000574503        0.0002905086
      60
 i =        4, E =     -7949.3304265412
 Pt        -0.0000962653        0.0001261472       -0.0003194053
 Pt         0.0000267409        0.0001591675       -0.0001781950
 Pt        -0.0000023952        0.0002151268       -0.0002114280
 Pt         0.0000448858       -0.0001360152       -0.0003078265
 Pt        -0.0001540954       -0.0001114349       -0.0001284828
 Pt        -0.0001396578       -0.0000222053        0.0000077528
 Pt        -0.0003317326        0.0001633902        0.0000665620
 Pt        -0.0003106849        0.0000948731        0.0001058713
 Pt         0.0002865391        0.0001871477        0.0000071690
 Pt         0.0003021777       -0.0000932935       -0.0000761860
 Pt         0.0004115996        0.0000352987        0.0001178649
 Pt         0.0004635533        0.0002334580        0.0000642172
 Ni         0.0001617190        0.0000883273       -0.0000500773
 Ni         0.0000965973        0.0004286824       -0.0001640060
 Ni         0.0004424330        0.0001495238       -0.0001153985
 Ni         0.0003932193       -0.0000993178        0.0000225266
 Pt        -0.0003227274        0.0002901150       -0.0001167048
 Pt        -0.0000571388        0.0000809955       -0.0002038136
 Ni        -0.0001135175       -0.0001401931        0.0000363124
 Ni        -0.0005584991       -0.0025421572        0.0003552175
 Pt        -0.0003885118       -0.0000836794       -0.0002415072
 Pt         0.0003390725       -0.0000245533       -0.0001238846
 Pt        -0.0000127768        0.0000849021       -0.0002643863
 Pt         0.0005348612        0.0001177064       -0.0002443938
 Pt        -0.0000817628        0.0000615733       -0.0001794215
 Pt         0.0000349069       -0.0002281405       -0.0001739350
 Ni         0.0006148924       -0.0000385447        0.0002734408
 Pt         0.0000635268       -0.0000377608       -0.0001047149
 Pt         0.0000723921        0.0000854161       -0.0002251601
 Pt         0.0000777000        0.0001242975       -0.0000635737
 Ni         0.0001904306        0.0004290245       -0.0001881166
 Pt         0.0000437595        0.0002206255       -0.0001418888
 Ni         0.0005990800        0.0002040641       -0.0003388472
 Pt        -0.0000148142        0.0001508453       -0.0001382122
 Pt         0.0001467577        0.0000219993       -0.0000969323
 Pt         0.0000064499       -0.0000941198       -0.0001260115
 Pt        -0.0004905596       -0.0001405531        0.0000536613
 Pt        -0.0000699715        0.0001308602        0.0000652766
 Pt        -0.0005181325        0.0001707026        0.0001409284
 Pt         0.0002300233       -0.0001080514       -0.0000030432
 Ni        -0.0004637094        0.0000737891        0.0001661169
 Pt         0.0000460739       -0.0000537717        0.0001177556
 Ni        -0.0001621792        0.0001456121        0.0002801897
 Pt         0.0002651563        0.0004080057        0.0000428917
 Ni        -0.0001151960        0.0000366542        0.0002402815
 Ni        -0.0002578157        0.0000376971       -0.0000423677
 Ni        -0.0002360246       -0.0002306733       -0.0001126798
 Ni         0.0000231131        0.0003742293       -0.0001717602
 Pt        -0.0004912111        0.0002882952       -0.0003903515
 Pt        -0.0003781884       -0.0000222443       -0.0003965682
 Pt        -0.0003606599       -0.0001305449       -0.0002948718
 Pt        -0.0003024449        0.0001697772       -0.0002336367
 Pt         0.0002433407        0.0000900837       -0.0003848340
 Pt         0.0002385100        0.0001600931       -0.0005323523
 Pt        -0.0000240364       -0.0000975127       -0.0002996053
 Pt         0.0001375312       -0.0000536436       -0.0003330510
 Pt        -0.0000402050        0.0002576748       -0.0000892272
 Pt         0.0000015212       -0.0001486977        0.0000203290
 Pt        -0.0001702781        0.0001862882       -0.0002176958
 Pt         0.0000367043        0.0001465041       -0.0001177031
      60
 i =        5, E =     -7949.3304862999
 Pt        -0.0000173850        0.0000611705       -0.0000722910
 Pt         0.0000498473        0.0000860767       -0.0000169562
 Pt         0.0000060323        0.0001211893        0.0000026414
 Pt         0.0000361970        0.0000180470       -0.0000163679
 Pt         0.0000569949       -0.0000062097       -0.0000775991
 Pt         0.0000040470        0.0000026816       -0.0000840546
 Pt        -0.0000268355        0.0000903006       -0.0000614416
 Pt        -0.0000349465        0.0001162697       -0.0002271260
 Pt         0.0000669967        0.0000711188       -0.0000223760
 Pt         0.0000788575        0.0000403351       -0.0000934778
 Pt         0.0001026653        0.0000080545       -0.0000488045
 Pt         0.0001027713        0.0000435831       -0.0000721201
 Ni         0.0000910469        0.0003862614        0.0000167648
 Ni         0.0001499926        0.0004403489       -0.0001067743
 Ni         0.0000897701        0.0001486495       -0.0000891282
 Ni         0.0002524555       -0.0000158562       -0.0000223872
 Pt        -0.0002012162        0.0000340811       -0.0002448420
 Pt         0.0000246266        0.0000986922       -0.0001806481
 Ni        -0.0000295387       -0.0000213574       -0.0000302988
 Ni         0.0008254946       -0.0002299852        0.0001230833
 Pt        -0.0001800674       -0.0000910547       -0.0002904314
 Pt         0.0002248925       -0.0000427963       -0.0000382985
 Pt        -0.0000172154        0.0000839369       -0.0001335959
 Pt         0.0003686680        0.0000383431       -0.0001342794
 Pt        -0.0000257943        0.0000332703       -0.0001076529
 Pt         0.0000798010       -0.0001046349       -0.0000529386
 Ni         0.0001512580        0.0001618653        0.0002116888
 Pt         0.0000195110       -0.0000183129       -0.0000598007
 Pt         0.0000570123        0.0001032025       -0.0001209017
 Pt         0.0000714986        0.0000858338       -0.0001464535
 Ni         0.0000260485        0.0003295444        0.0000945580
 Pt         0.0001048936        0.0001696647       -0.0001448549
 Ni         0.0002368670       -0.0002479307        0.0002101977
 Pt        -0.0000164711        0.0000492682       -0.0001256798
 Pt        -0.0000467005       -0.0000459039       -0.0000242196
 Pt         0.0000635918       -0.0000380868       -0.0000746500
 Pt        -0.0003468619        0.0000664988       -0.0003112525
 Pt        -0.0001000336        0.0001241236       -0.0001673622
 Pt        -0.0003217682        0.0000427556       -0.0002592362
 Pt         0.0001371821       -0.0000111897       -0.0000932582
 Ni        -0.0003456916        0.0002789694        0.0000004137
 Pt        -0.0000142466        0.0001309667       -0.0000762489
 Ni         0.0000066318        0.0001736551       -0.0000126519
 Pt         0.0001681385        0.0000928547       -0.0001041540
 Ni        -0.0000102501       -0.0000750690        0.0001046184
 Ni        -0.0001477849        0.0000257897       -0.0000745338
 Ni        -0.0000513744       -0.0001020465       -0.0000993576
 Ni         0.0000646412        0.0003270316       -0.0001192114
 Pt        -0.0001763586        0.0001186297       -0.0001497803
 Pt        -0.0001831460        0.0000489107       -0.0001525194
 Pt        -0.0001610314        0.0000153808       -0.0001877154
 Pt        -0.0001605363        0.0000967260       -0.0001489032
 Pt        -0.0000297012        0.0001075462       -0.0000369512
 Pt         0.0000549518        0.0001018809       -0.0001811765
 Pt        -0.0000808367        0.0000074424       -0.0001223809
 Pt        -0.0000144244        0.0000223902       -0.0001783927
 Pt        -0.0001400767        0.0001466352       -0.0002179507
 Pt        -0.0001010321       -0.0000070453       -0.0001319823
 Pt        -0.0000810160        0.0000786779       -0.0002807629
 Pt        -0.0000347289        0.0000883692       -0.0001773684
      60
 i =        6, E =     -7949.3305209918
 Pt         0.0000875129        0.0000702001        0.0000445907
 Pt         0.0000091154        0.0000334322       -0.0000145513
 Pt         0.0001031543        0.0000275627        0.0000112781
 Pt         0.0000822441        0.0001067642        0.0000753458
 Pt         0.0001135540        0.0000588579       -0.0000644975
 Pt         0.0000946776        0.0000712722       -0.0001413120
 Pt         0.0001737247        0.0000101323       -0.0000674214
 Pt         0.0001720428        0.0000412080       -0.0002625498
 Pt        -0.0000315681        0.0000050191       -0.0000574065
 Pt        -0.0000265452        0.0001009854       -0.0000831313
 Pt        -0.0000849800        0.0000764449       -0.0001233385
 Pt        -0.0001101924       -0.0000178567       -0.0001418895
 Ni         0.0000382228       -0.0000898331       -0.0000041678
 Ni         0.0000814676       -0.0002273780       -0.0000539194
 Ni        -0.0003274815        0.0000921571       -0.0000771939
 Ni         0.0000851681        0.0000313024       -0.0000657668
 Pt         0.0000155088        0.0000539809       -0.0001438371
 Pt         0.0000649128       -0.0000144061       -0.0000494920
 Ni         0.0000307515        0.0000022165       -0.0000611994
 Ni         0.0006561343       -0.0001335759       -0.0003286413
 Pt         0.0000566166       -0.0000216126       -0.0001446660
 Pt         0.0000483593        0.0000644493       -0.0000120581
 Pt         0.0000684204        0.0000908611       -0.0000377181
 Pt         0.0000986051       -0.0000304131        0.0000290587
 Pt         0.0001143137        0.0000470569       -0.0001157752
 Pt         0.0000336017        0.0000975462       -0.0001032321
 Ni        -0.0001420127        0.0000497511       -0.0000452170
 Pt         0.0000052875        0.0000637503       -0.0000639236
 Pt         0.0000480805        0.0000295394       -0.0000924316
 Pt         0.0000303651        0.0000203226       -0.0001160383
 Ni        -0.0000540175        0.0002540130        0.0002442473
 Pt         0.0000311748        0.0001146712       -0.0001479098
 Ni         0.0000434706       -0.0000920717        0.0002258627
 Pt         0.0000571234        0.0000520343       -0.0000954698
 Pt         0.0000100514       -0.0000133243       -0.0000958991
 Pt         0.0000749209        0.0000635275       -0.0000996528
 Pt        -0.0001031183        0.0001767438       -0.0003192064
 Pt        -0.0000784806        0.0000372673       -0.0002128252
 Pt        -0.0001030460       -0.0000338667       -0.0002664419
 Pt        -0.0000114356        0.0000865445       -0.0001853689
 Ni        -0.0003314392        0.0003156116       -0.0000212347
 Pt        -0.0000553323        0.0001476237       -0.0001628058
 Ni         0.0000803000        0.0001521283       -0.0001310908
 Pt         0.0000013670       -0.0000249533       -0.0001385173
 Ni        -0.0000051863       -0.0000268365       -0.0000913921
 Ni        -0.0000479128       -0.0000935035       -0.0000355623
 Ni         0.0000509470        0.0000350008       -0.0000219396
 Ni         0.0000422041       -0.0000227968       -0.0000110054
 Pt         0.0000231682        0.0000055599       -0.0000141627
 Pt         0.0000159222        0.0001043000       -0.0000399747
 Pt        -0.0000198775        0.0001493678       -0.0000991540
 Pt        -0.0000201610        0.0000549893       -0.0001040096
 Pt        -0.0002193554        0.0000630074        0.0000415773
 Pt        -0.0001725381        0.0000622447       -0.0000531799
 Pt        -0.0001167790        0.0000953352       -0.0000656811
 Pt        -0.0001502545        0.0000748936       -0.0000443279
 Pt        -0.0001340381        0.0000083172       -0.0002226240
 Pt        -0.0001397945        0.0001114668       -0.0001892955
 Pt        -0.0000279100        0.0000661446       -0.0001886321
 Pt        -0.0001030922        0.0000577304       -0.0001497961
      60
 i =        7, E =     -7949.3305477427
 Pt         0.0000467795        0.0000395469        0.0000778248
 Pt         0.0000343164       -0.0000333968        0.0000118722
 Pt         0.0001535907       -0.0000505009        0.0000077422
 Pt         0.0001436382        0.0000608290        0.0000958158
 Pt         0.0001173645        0.0000985498        0.0000035266
 Pt         0.0001249154        0.0000825731       -0.0001171604
 Pt         0.0001903592       -0.0000307940       -0.0000422089
 Pt         0.0002645440       -0.0000067061       -0.0001259054
 Pt        -0.0000217768        0.0000384166       -0.0000880159
 Pt        -0.0000246121        0.0000878618       -0.0000466902
 Pt        -0.0001194890        0.0000426127       -0.0001997309
 Pt        -0.0001211940       -0.0000182611       -0.0001661030
 Ni        -0.0000519856       -0.0000905699       -0.0000632167
 Ni         0.0000708271       -0.0001769373       -0.0001435346
 Ni        -0.0001818853       -0.0000020336       -0.0001301755
 Ni        -0.0001203046        0.0001690425       -0.0000371809
 Pt         0.0002327850       -0.0000226968        0.0000282460
 Pt         0.0001141042       -0.0000303728       -0.0000352108
 Ni         0.0000599634        0.0000267065       -0.0000409430
 Ni        -0.0008346542        0.0002854650       -0.0002186258
 Pt         0.0002474115        0.0000618465        0.0000763198
 Pt        -0.0001628946        0.0001388685       -0.0000586231
 Pt         0.0001670466       -0.0000169268        0.0000217638
 Pt        -0.0001887519       -0.0000333829        0.0000217040
 Pt         0.0001004347        0.0000957957       -0.0000368267
 Pt         0.0000047937        0.0001741846       -0.0001128275
 Ni        -0.0003702785       -0.0001938640       -0.0000415640
 Pt         0.0000124459        0.0000997773       -0.0001208829
 Pt         0.0000226113       -0.0000004528       -0.0000526364
 Pt         0.0000125366       -0.0000889671       -0.0000411472
 Ni        -0.0001942489        0.0003270737        0.0004275557
 Pt         0.0000264438       -0.0000852237       -0.0000565323
 Ni        -0.0004134796        0.0001462756        0.0002735226
 Pt         0.0000646704       -0.0000197450       -0.0000467320
 Pt        -0.0000297500        0.0000985752       -0.0001235395
 Pt         0.0000253181        0.0001015343       -0.0001267319
 Pt         0.0001792971        0.0001492386       -0.0001409374
 Pt        -0.0000127928        0.0000176561       -0.0001801333
 Pt         0.0001601428        0.0000195905       -0.0001765979
 Pt        -0.0001628735        0.0001399827       -0.0001920038
 Ni         0.0000229425        0.0001137331       -0.0000519750
 Pt        -0.0000657567        0.0000851050       -0.0001816597
 Ni         0.0000161657        0.0000041700       -0.0001294185
 Pt        -0.0002195356       -0.0000049471       -0.0001478567
 Ni        -0.0000294537        0.0000319929       -0.0001350245
 Ni         0.0001418149       -0.0003004126       -0.0000013639
 Ni         0.0000852535        0.0000666198        0.0000680962
 Ni         0.0000097610       -0.0002312447        0.0001015032
 Pt         0.0001138450       -0.0000263184        0.0000610030
 Pt         0.0000717624        0.0000831990        0.0000245515
 Pt         0.0000379788        0.0001824430       -0.0000352106
 Pt         0.0000132378        0.0000416552       -0.0000567001
 Pt        -0.0002517496        0.0000324892        0.0000545342
 Pt        -0.0002978747        0.0000444276       -0.0000138721
 Pt        -0.0001165466        0.0001406007       -0.0000529225
 Pt        -0.0001734412        0.0001313634        0.0000375795
 Pt        -0.0001407411       -0.0000317511       -0.0001935619
 Pt        -0.0001568461        0.0001697623       -0.0001954750
 Pt         0.0000060949        0.0000468708       -0.0000651530
 Pt        -0.0000916846        0.0000304313       -0.0001086998
      60
 i =        8, E =     -7949.3305648843
 Pt         0.0000578041        0.0000066660        0.0000072284
 Pt         0.0000450648       -0.0000007013       -0.0000456856
 Pt         0.0000888632       -0.0000338806       -0.0000442909
 Pt         0.0000901145        0.0000451991       -0.0000055273
 Pt         0.0000541429        0.0000821127       -0.0000375062
 Pt         0.0000937331        0.0000519822       -0.0000795573
 Pt         0.0001083535       -0.0000074072       -0.0000449843
 Pt         0.0001310518        0.0000003003       -0.0000219135
 Pt         0.0000261492        0.0000278707       -0.0000793752
 Pt         0.0000202308        0.0000675679       -0.0000348952
 Pt        -0.0000082401        0.0000270479       -0.0001460836
 Pt         0.0000048960        0.0000114557       -0.0001077109
 Ni        -0.0000734153       -0.0001247371       -0.0001018388
 Ni         0.0000007814       -0.0001871442       -0.0001740152
 Ni         0.0000453150       -0.0000405166       -0.0001469661
 Ni        -0.0000962537        0.0000485803       -0.0000480839
 Pt         0.0001897357       -0.0000163453        0.0000500203
 Pt         0.0000719575        0.0000700944       -0.0000511711
 Ni        -0.0000009789        0.0000034777       -0.0000133090
 Ni        -0.0002085996        0.0003758032        0.0000022784
 Pt         0.0001844510        0.0001142744        0.0000883061
 Pt        -0.0001549246        0.0000626167       -0.0000985326
 Pt         0.0000925249       -0.0000394413       -0.0000141765
 Pt        -0.0002131314        0.0000375128       -0.0000659776
 Pt         0.0000353313        0.0000646883       -0.0000194158
 Pt        -0.0000244638        0.0001116374       -0.0000818838
 Ni        -0.0000609833       -0.0001698984       -0.0001478656
 Pt         0.0000080769        0.0000777794       -0.0001082318
 Pt        -0.0000163542        0.0000236996       -0.0000324187
 Pt         0.0000114631       -0.0000287372       -0.0000222896
 Ni        -0.0000972013        0.0004052006       -0.0001261951
 Pt        -0.0000243871       -0.0000847050       -0.0000034033
 Ni        -0.0002095880        0.0002304187       -0.0001545049
 Pt         0.0000567024        0.0000244259       -0.0000454348
 Pt         0.0000017280        0.0000737376       -0.0001000513