 DBCSR| CPU Multiplication driver                                           XSMM (U)
 DBCSR| Multrec recursion limit                                              512 (U)
 DBCSR| Multiplication stack size                                           1000 (D)
 DBCSR| Maximum elements for images                                    UNLIMITED (U)
 DBCSR| Multiplicative factor virtual images                                   1 (U)
 DBCSR| Use multiplication densification                                       T (D)
 DBCSR| Multiplication size stacks                                             3 (U)
 DBCSR| Use memory pool for CPU allocation                                     F (U)
 DBCSR| Number of 3D layers                                               SINGLE (U)
 DBCSR| Use MPI memory allocation                                              F (U)
 DBCSR| Use RMA algorithm                                                      F (U)
 DBCSR| Use Communication thread                                               T (U)
 DBCSR| Communication thread load                                             87 (D)
 DBCSR| MPI: My process id                                                     0
 DBCSR| MPI: Number of processes                                             128
 DBCSR| OMP: Current number of threads                                         1
 DBCSR| OMP: Max number of threads                                             1
 DBCSR| Split modifier for TAS multiplication algorithm                  1.0E+00 (U)


  **** **** ******  **  PROGRAM STARTED AT               2023-02-15 10:33:59.194
 ***** ** ***  *** **   PROGRAM STARTED ON                             nid003584
 **    ****   ******    PROGRAM STARTED BY                                cahart
 ***** **    ** ** **   PROGRAM PROCESS ID                                177002
  **** **  *******  **  PROGRAM STARTED IN /mnt/lustre/a2fs-work2/work/e05/e05/c
                                           ahart/postdoc/masters/ni/archer2/slab
                                           /optimise/magnetisation/scf_1e-3_temp
                                           -2000_mos-1000_alpha-0.08_beta-1.5_pe
                                           riodic-xyz/search/0.41_0.7

 CP2K| version string:                 CP2K version 2023.1 (Development Version)
 CP2K| source code revision number:                                  git:964cd58
 CP2K| cp2kflags: omp libint fftw3 libxc elpa parallel scalapack xsmm plumed2 mk
 CP2K|            l
 CP2K| is freely available from                            https://www.cp2k.org/
 CP2K| Program compiled at                          Mon 13 Feb 17:05:14 GMT 2023
 CP2K| Program compiled on                                                  ln01
 CP2K| Program compiled for                                              ARCHER2
 CP2K| Data directory path    /work/e05/e05/cahart/cp2k/cp2k-2023.1/cp2k-2023.1-
 CP2K| Input file name                                                  cp2k.inp

 GLOBAL| Force Environment number                                              1
 GLOBAL| Basis set file name                                        BASIS_MOLOPT
 GLOBAL| Potential file name                                      GTH_POTENTIALS
 GLOBAL| MM Potential file name                                     MM_POTENTIAL
 GLOBAL| Coordinate file name                                      __STD_INPUT__
 GLOBAL| Method name                                                        CP2K
 GLOBAL| Project name                                                    Ni_bulk
 GLOBAL| Run type                                                         ENERGY
 GLOBAL| FFT library                                                       FFTW3
 GLOBAL| Diagonalization library                                            ELPA
 GLOBAL| DGEMM library                                                      BLAS
 GLOBAL| Minimum number of eigenvectors for ELPA usage                        16
 GLOBAL| Orthonormality check for eigenvectors                          DISABLED
 GLOBAL| Matrix multiplication library                                 ScaLAPACK
 GLOBAL| All-to-all communication in single precision                          F
 GLOBAL| FFTs using library dependent lengths                                  F
 GLOBAL| Grid backend                                                       AUTO
 GLOBAL| Global print level                                               MEDIUM
 GLOBAL| MPI I/O enabled                                                       T
 GLOBAL| Total number of message passing processes                           128
 GLOBAL| Number of threads for this process                                    1
 GLOBAL| This output is from process                                           0
 GLOBAL| Stack size for threads created by OpenMP (OMP_STACKSIZE)        default
 GLOBAL| CPU model name                          AMD EPYC 7742 64-Core Processor
 GLOBAL| CPUID                                                              1002

 MEMORY| system memory details [Kb]
 MEMORY|                        rank 0           min           max       average
 MEMORY| MemTotal            263528084     263528084     263528084     263528084
 MEMORY| MemFree             239194048     239194048     239194048     239194048
 MEMORY| Buffers                 25032         25032         25032         25032
 MEMORY| Cached                 629244        629244        629244        629244
 MEMORY| Slab                  1541712       1541712       1541712       1541712
 MEMORY| SReclaimable           109400        109400        109400        109400
 MEMORY| MemLikelyFree       239957724     239957724     239957724     239957724


 *** Fundamental physical constants (SI units) ***

 *** Literature: B. J. Mohr and B. N. Taylor,
 ***             CODATA recommended values of the fundamental physical
 ***             constants: 2006, Web Version 5.1
 ***             http://physics.nist.gov/constants

 Speed of light in vacuum [m/s]                             2.99792458000000E+08
 Magnetic constant or permeability of vacuum [N/A**2]       1.25663706143592E-06
 Electric constant or permittivity of vacuum [F/m]          8.85418781762039E-12
 Planck constant (h) [J*s]                                  6.62606896000000E-34
 Planck constant (h-bar) [J*s]                              1.05457162825177E-34
 Elementary charge [C]                                      1.60217648700000E-19
 Electron mass [kg]                                         9.10938215000000E-31
 Electron g factor [ ]                                     -2.00231930436220E+00
 Proton mass [kg]                                           1.67262163700000E-27
 Fine-structure constant                                    7.29735253760000E-03
 Rydberg constant [1/m]                                     1.09737315685270E+07
 Avogadro constant [1/mol]                                  6.02214179000000E+23
 Boltzmann constant [J/K]                                   1.38065040000000E-23
 Atomic mass unit [kg]                                      1.66053878200000E-27
 Bohr radius [m]                                            5.29177208590000E-11

 *** Conversion factors ***

 [u] -> [a.u.]                                              1.82288848426455E+03
 [Angstrom] -> [Bohr] = [a.u.]                              1.88972613288564E+00
 [a.u.] = [Bohr] -> [Angstrom]                              5.29177208590000E-01
 [a.u.] -> [s]                                              2.41888432650478E-17
 [a.u.] -> [fs]                                             2.41888432650478E-02
 [a.u.] -> [J]                                              4.35974393937059E-18
 [a.u.] -> [N]                                              8.23872205491840E-08
 [a.u.] -> [K]                                              3.15774647902944E+05
 [a.u.] -> [kJ/mol]                                         2.62549961709828E+03
 [a.u.] -> [kcal/mol]                                       6.27509468713739E+02
 [a.u.] -> [Pa]                                             2.94210107994716E+13
 [a.u.] -> [bar]                                            2.94210107994716E+08
 [a.u.] -> [atm]                                            2.90362800883016E+08
 [a.u.] -> [eV]                                             2.72113838565563E+01
 [a.u.] -> [Hz]                                             6.57968392072181E+15
 [a.u.] -> [1/cm] (wave numbers)                            2.19474631370540E+05
 [a.u./Bohr**2] -> [1/cm]                                   5.14048714338585E+03
 

 CELL_TOP| Volume [angstrom^3]:                                       983.249569
 CELL_TOP| Vector a [angstrom     7.012     0.000     0.000   |a| =     7.011596
 CELL_TOP| Vector b [angstrom     0.000     7.012     0.000   |b| =     7.011596
 CELL_TOP| Vector c [angstrom     0.000     0.000    20.000   |c| =    20.000000
 CELL_TOP| Angle (b,c), alpha [degree]:                                90.000000
 CELL_TOP| Angle (a,c), beta  [degree]:                                90.000000
 CELL_TOP| Angle (a,b), gamma [degree]:                                90.000000
 CELL_TOP| Numerically orthorhombic:                                         YES
 CELL_TOP| Periodicity                                                       XYZ

 GENERATE|  Preliminary Number of Bonds generated:                             0
 GENERATE|  Achieved consistency in connectivity generation.

 CELL| Volume [angstrom^3]:                                           983.249569
 CELL| Vector a [angstrom]:       7.012     0.000     0.000   |a| =     7.011596
 CELL| Vector b [angstrom]:       0.000     7.012     0.000   |b| =     7.011596
 CELL| Vector c [angstrom]:       0.000     0.000    20.000   |c| =    20.000000
 CELL| Angle (b,c), alpha [degree]:                                    90.000000
 CELL| Angle (a,c), beta  [degree]:                                    90.000000
 CELL| Angle (a,b), gamma [degree]:                                    90.000000
 CELL| Numerically orthorhombic:                                             YES
 CELL| Periodicity                                                           XYZ

 CELL_REF| Volume [angstrom^3]:                                       983.249569
 CELL_REF| Vector a [angstrom     7.012     0.000     0.000   |a| =     7.011596
 CELL_REF| Vector b [angstrom     0.000     7.012     0.000   |b| =     7.011596
 CELL_REF| Vector c [angstrom     0.000     0.000    20.000   |c| =    20.000000
 CELL_REF| Angle (b,c), alpha [degree]:                                90.000000
 CELL_REF| Angle (a,c), beta  [degree]:                                90.000000
 CELL_REF| Angle (a,b), gamma [degree]:                                90.000000
 CELL_REF| Numerically orthorhombic:                                         YES
 CELL_REF| Periodicity                                                       XYZ

 *** WARNING in cryssym.F:165 :: Symmetry library SPGLIB not available ***


 *******************************************************************************
                                    Kpoints
 *******************************************************************************
 BRILLOUIN| K-point scheme                                        Monkhorst-Pack
 BRILLOUIN| K-Point grid                                             4    4    1
 BRILLOUIN| Accuracy in Symmetry determination                      0.100000E-05
 BRILLOUIN| K-Point point group symmetrization                               OFF
 BRILLOUIN| Wavefunction type                                            COMPLEX
 BRILLOUIN| List of Kpoints [2 Pi/Bohr]                                        8
 BRILLOUIN| Number           Weight            X              Y              Z
 BRILLOUIN|     1           0.12500       -0.37500       -0.37500        0.00000
 BRILLOUIN|     2           0.12500       -0.37500       -0.12500        0.00000
 BRILLOUIN|     3           0.12500       -0.37500        0.12500        0.00000
 BRILLOUIN|     4           0.12500       -0.37500        0.37500        0.00000
 BRILLOUIN|     5           0.12500       -0.12500       -0.37500        0.00000
 BRILLOUIN|     6           0.12500       -0.12500       -0.12500        0.00000
 BRILLOUIN|     7           0.12500       -0.12500        0.12500        0.00000
 BRILLOUIN|     8           0.12500       -0.12500        0.37500        0.00000
 *******************************************************************************

 *******************************************************************************
 *******************************************************************************
 **                                                                           **
 **     #####                         ##              ##                      **
 **    ##   ##            ##          ##              ##                      **
 **   ##     ##                       ##            ######                    **
 **   ##     ##  ##   ##  ##   #####  ##  ##   ####   ##    #####    #####    **
 **   ##     ##  ##   ##  ##  ##      ## ##   ##      ##   ##   ##  ##   ##   **
 **   ##  ## ##  ##   ##  ##  ##      ####     ###    ##   ######   ######    **
 **    ##  ###   ##   ##  ##  ##      ## ##      ##   ##   ##       ##        **
 **     #######   #####   ##   #####  ##  ##  ####    ##    #####   ##        **
 **           ##                                                    ##        **
 **                                                                           **
 **                                                ... make the atoms dance   **
 **                                                                           **
 **            Copyright (C) by CP2K developers group (2000-2023)             **
 **                      J. Chem. Phys. 152, 194103 (2020)                    **
 **                                                                           **
 *******************************************************************************

 *** WARNING in qs_environment.F:1456 :: Number of electrons will be ***
 *** overwritten by NELEC_ALPHA and NELEC_BETA, multiplicity will be ***
 *** ignored.                                                        ***

 Number of electrons should be                                               576
 Sum of NELEC_ALPHA and NELEC_BETA is                                    576.000

 *** WARNING in qs_environment.F:1488 :: NELEC_ALPHA is not an integer, ***
 *** many features will not be supported.                               ***


 *** WARNING in qs_environment.F:1500 :: NELEC_BETA is not an integer, ***
 *** many features will not be supported.                              ***


 *** WARNING in qs_environment.F:1532 :: More ADDED_MOs requested for beta ***
 *** spin than available.                                                  ***


 *** WARNING in qs_environment.F:1548 :: More added MOs requested than     ***
 *** available. The full set of unoccupied MOs will be used. Use           ***
 *** 'ADDED_MOS -1' to always use all available MOs and to get rid of this ***
 *** warning.                                                              ***


 DFT| Spin unrestricted (spin-polarized) Kohn-Sham calculation               UKS
 DFT| Multiplicity                                                             1
 DFT| Number of spin states                                                    2
 DFT| Charge                                                                   0
 DFT| Self-interaction correction (SIC)                                       NO
 DFT| Cutoffs: density                                              1.000000E-10
 DFT|          gradient                                             1.000000E-10
 DFT|          tau                                                  1.000000E-10
 DFT|          cutoff_smoothing_range                               0.000000E+00
 DFT| XC density smoothing                                                  NONE
 DFT| XC derivatives                                                          PW

 FUNCTIONAL| PBE:
 FUNCTIONAL| J.P.Perdew, K.Burke, M.Ernzerhof, Phys. Rev. Letter, vol. 77, n 18,
 FUNCTIONAL|  pp. 3865-3868, (1996){spin polarized}                             

 vdW POTENTIAL|                                                   Pair Potential
 vdW POTENTIAL|          DFT-D3 (Version 3.1)
 vdW POTENTIAL|          Potential Form: S. Grimme et al, JCP 132: 154104 (2010)
 vdW POTENTIAL|          Zero Damping
 vdW POTENTIAL|          Cutoff Radius [Bohr]:                             20.00
 vdW POTENTIAL|          s6 Scaling Factor:                               1.0000
 vdW POTENTIAL|          sr6 Scaling Factor:                              1.2170
 vdW POTENTIAL|          s8 Scaling Factor:                               0.7220
 vdW POTENTIAL|          Cutoff for CN calculation:                   0.1000E-05

 QS| Method:                                                                 GPW
 QS| Density plane wave grid type                        NON-SPHERICAL FULLSPACE
 QS| Number of grid levels:                                                    5
 QS| Density cutoff [a.u.]:                                                300.0
 QS| Multi grid cutoff [a.u.]: 1) grid level                               300.0
 QS|                           2) grid level                               100.0
 QS|                           3) grid level                                33.3
 QS|                           4) grid level                                11.1
 QS|                           5) grid level                                 3.7
 QS| Grid level progression factor:                                          3.0
 QS| Relative density cutoff [a.u.]:                                        30.0
 QS| Interaction thresholds: eps_pgf_orb:                                1.0E-06
 QS|                         eps_filter_matrix:                          0.0E+00
 QS|                         eps_core_charge:                            1.0E-14
 QS|                         eps_rho_gspace:                             1.0E-12
 QS|                         eps_rho_rspace:                             1.0E-12
 QS|                         eps_gvg_rspace:                             1.0E-06
 QS|                         eps_ppl:                                    1.0E-02
 QS|                         eps_ppnl:                                   1.0E-08


 ATOMIC KIND INFORMATION

  1. Atomic kind: Ni_i                                  Number of atoms:      16

     Orbital Basis Set                                        DZVP-MOLOPT-SR-GTH

       Number of orbital shell sets:                                           1
       Number of orbital shells:                                               8
       Number of primitive Cartesian functions:                                6
       Number of Cartesian basis functions:                                   31
       Number of spherical basis functions:                                   26
       Norm type:                                                              2

       Normalised Cartesian orbitals:

                        Set   Shell   Orbital            Exponent    Coefficient

                          1       1    2s               10.077428      -0.684558
                                                         5.847736      -0.844524
                                                         2.494033       1.088856
                                                         0.988355       0.395503
                                                         0.344978       0.010224
                                                         0.099466      -0.003250

                          1       2    3s               10.077428       0.096747
                                                         5.847736       0.162504
                                                         2.494033      -0.297192
                                                         0.988355      -0.319752
                                                         0.344978       0.088318
                                                         0.099466       0.118587

                          1       3    4s               10.077428       0.036437
                                                         5.847736      -0.381480
                                                         2.494033       0.003759
                                                         0.988355      -1.048256
                                                         0.344978       0.855825
                                                         0.099466      -0.176350

                          1       4    3px              10.077428      -3.133913
                                                         5.847736       3.027656
                                                         2.494033       2.353227
                                                         0.988355       0.554184
                                                         0.344978       0.019462
                                                         0.099466      -0.000291
                          1       4    3py              10.077428      -3.133913
                                                         5.847736       3.027656
                                                         2.494033       2.353227
                                                         0.988355       0.554184
                                                         0.344978       0.019462
                                                         0.099466      -0.000291
                          1       4    3pz              10.077428      -3.133913
                                                         5.847736       3.027656
                                                         2.494033       2.353227
                                                         0.988355       0.554184
                                                         0.344978       0.019462
                                                         0.099466      -0.000291

                          1       5    4px              10.077428      -0.112729
                                                         5.847736      -0.114008
                                                         2.494033      -0.347303
                                                         0.988355      -0.110323
                                                         0.344978       0.154096
                                                         0.099466       0.058386
                          1       5    4py              10.077428      -0.112729
                                                         5.847736      -0.114008
                                                         2.494033      -0.347303
                                                         0.988355      -0.110323
                                                         0.344978       0.154096
                                                         0.099466       0.058386
                          1       5    4pz              10.077428      -0.112729
                                                         5.847736      -0.114008
                                                         2.494033      -0.347303
                                                         0.988355      -0.110323
                                                         0.344978       0.154096
                                                         0.099466       0.058386

                          1       6    4dx2             10.077428       8.232726
                                                         5.847736       9.105758
                                                         2.494033       2.849835
                                                         0.988355       0.554319
                                                         0.344978       0.067245
                                                         0.099466       0.001940
                          1       6    4dxy             10.077428      14.259500
                                                         5.847736      15.771636
                                                         2.494033       4.936060
                                                         0.988355       0.960109
                                                         0.344978       0.116472
                                                         0.099466       0.003360
                          1       6    4dxz             10.077428      14.259500
                                                         5.847736      15.771636
                                                         2.494033       4.936060
                                                         0.988355       0.960109
                                                         0.344978       0.116472
                                                         0.099466       0.003360
                          1       6    4dy2             10.077428       8.232726
                                                         5.847736       9.105758
                                                         2.494033       2.849835
                                                         0.988355       0.554319
                                                         0.344978       0.067245
                                                         0.099466       0.001940
                          1       6    4dyz             10.077428      14.259500
                                                         5.847736      15.771636
                                                         2.494033       4.936060
                                                         0.988355       0.960109
                                                         0.344978       0.116472
                                                         0.099466       0.003360
                          1       6    4dz2             10.077428       8.232726
                                                         5.847736       9.105758
                                                         2.494033       2.849835
                                                         0.988355       0.554319
                                                         0.344978       0.067245
                                                         0.099466       0.001940

                          1       7    5dx2             10.077428      -2.715373
                                                         5.847736      -4.020640
                                                         2.494033      -1.397569
                                                         0.988355      -0.076143
                                                         0.344978       0.033435
                                                         0.099466       0.026032
                          1       7    5dxy             10.077428      -4.703164
                                                         5.847736      -6.963952
                                                         2.494033      -2.420661
                                                         0.988355      -0.131883
                                                         0.344978       0.057911
                                                         0.099466       0.045088
                          1       7    5dxz             10.077428      -4.703164
                                                         5.847736      -6.963952
                                                         2.494033      -2.420661
                                                         0.988355      -0.131883
                                                         0.344978       0.057911
                                                         0.099466       0.045088
                          1       7    5dy2             10.077428      -2.715373
                                                         5.847736      -4.020640
                                                         2.494033      -1.397569
                                                         0.988355      -0.076143
                                                         0.344978       0.033435
                                                         0.099466       0.026032
                          1       7    5dyz             10.077428      -4.703164
                                                         5.847736      -6.963952
                                                         2.494033      -2.420661
                                                         0.988355      -0.131883
                                                         0.344978       0.057911
                                                         0.099466       0.045088
                          1       7    5dz2             10.077428      -2.715373
                                                         5.847736      -4.020640
                                                         2.494033      -1.397569
                                                         0.988355      -0.076143
                                                         0.344978       0.033435
                                                         0.099466       0.026032

                          1       8    5fx3             10.077428      -0.467694
                                                         5.847736       0.618100
                                                         2.494033       0.066069
                                                         0.988355       0.262898
                                                         0.344978       0.004720
                                                         0.099466       0.007748
                          1       8    5fx2y            10.077428      -1.045795
                                                         5.847736       1.382114
                                                         2.494033       0.147734
                                                         0.988355       0.587859
                                                         0.344978       0.010555
                                                         0.099466       0.017325
                          1       8    5fx2z            10.077428      -1.045795
                                                         5.847736       1.382114
                                                         2.494033       0.147734
                                                         0.988355       0.587859
                                                         0.344978       0.010555
                                                         0.099466       0.017325
                          1       8    5fxy2            10.077428      -1.045795
                                                         5.847736       1.382114
                                                         2.494033       0.147734
                                                         0.988355       0.587859
                                                         0.344978       0.010555
                                                         0.099466       0.017325
                          1       8    5fxyz            10.077428      -1.811371
                                                         5.847736       2.393892
                                                         2.494033       0.255883
                                                         0.988355       1.018201
                                                         0.344978       0.018282
                                                         0.099466       0.030008
                          1       8    5fxz2            10.077428      -1.045795
                                                         5.847736       1.382114
                                                         2.494033       0.147734
                                                         0.988355       0.587859
                                                         0.344978       0.010555
                                                         0.099466       0.017325
                          1       8    5fy3             10.077428      -0.467694
                                                         5.847736       0.618100
                                                         2.494033       0.066069
                                                         0.988355       0.262898
                                                         0.344978       0.004720
                                                         0.099466       0.007748
                          1       8    5fy2z            10.077428      -1.045795
                                                         5.847736       1.382114
                                                         2.494033       0.147734
                                                         0.988355       0.587859
                                                         0.344978       0.010555
                                                         0.099466       0.017325
                          1       8    5fyz2            10.077428      -1.045795
                                                         5.847736       1.382114
                                                         2.494033       0.147734
                                                         0.988355       0.587859
                                                         0.344978       0.010555
                                                         0.099466       0.017325
                          1       8    5fz3             10.077428      -0.467694
                                                         5.847736       0.618100
                                                         2.494033       0.066069
                                                         0.988355       0.262898
                                                         0.344978       0.004720
                                                         0.099466       0.007748

       Atomic covalent radius [Angstrom]:                                  1.150

       Atomic van der Waals radius [Angstrom]:                             1.630

     GTH Potential information for                                   GTH-PBE-q18

       Description:                       Goedecker-Teter-Hutter pseudopotential
                                           Goedecker et al., PRB 54, 1703 (1996)
                                          Hartwigsen et al., PRB 58, 3641 (1998)
                                                      Krack, TCA 114, 145 (2005)

       Gaussian exponent of the core charge distribution:               4.081633
       Electronic configuration (s p d ...):                           4   6   8

       Parameters of the local part of the GTH pseudopotential:

                          rloc        C1          C2          C3          C4
                        0.350000    2.102166    0.648484

       Parameters of the non-local part of the GTH pseudopotential:

                   l      r(l)      h(i,j,l)

                   0    0.261295    0.622658    9.970227
                                    9.970227  -12.871507
                   1    0.224253  -11.142708   12.429566
                                   12.429566  -14.706861
                   2    0.215348  -12.628146

  2. Atomic kind: Ni_b                                  Number of atoms:      16

     Orbital Basis Set                                        DZVP-MOLOPT-SR-GTH

       Number of orbital shell sets:                                           1
       Number of orbital shells:                                               8
       Number of primitive Cartesian functions:                                6
       Number of Cartesian basis functions:                                   31
       Number of spherical basis functions:                                   26
       Norm type:                                                              2

       Normalised Cartesian orbitals:

                        Set   Shell   Orbital            Exponent    Coefficient

                          1       1    2s               10.077428      -0.684558
                                                         5.847736      -0.844524
                                                         2.494033       1.088856
                                                         0.988355       0.395503
                                                         0.344978       0.010224
                                                         0.099466      -0.003250

                          1       2    3s               10.077428       0.096747
                                                         5.847736       0.162504
                                                         2.494033      -0.297192
                                                         0.988355      -0.319752
                                                         0.344978       0.088318
                                                         0.099466       0.118587

                          1       3    4s               10.077428       0.036437
                                                         5.847736      -0.381480
                                                         2.494033       0.003759
                                                         0.988355      -1.048256
                                                         0.344978       0.855825
                                                         0.099466      -0.176350

                          1       4    3px              10.077428      -3.133913
                                                         5.847736       3.027656
                                                         2.494033       2.353227
                                                         0.988355       0.554184
                                                         0.344978       0.019462
                                                         0.099466      -0.000291
                          1       4    3py              10.077428      -3.133913
                                                         5.847736       3.027656
                                                         2.494033       2.353227
                                                         0.988355       0.554184
                                                         0.344978       0.019462
                                                         0.099466      -0.000291
                          1       4    3pz              10.077428      -3.133913
                                                         5.847736       3.027656
                                                         2.494033       2.353227
                                                         0.988355       0.554184
                                                         0.344978       0.019462
                                                         0.099466      -0.000291

                          1       5    4px              10.077428      -0.112729
                                                         5.847736      -0.114008
                                                         2.494033      -0.347303
                                                         0.988355      -0.110323
                                                         0.344978       0.154096
                                                         0.099466       0.058386
                          1       5    4py              10.077428      -0.112729
                                                         5.847736      -0.114008
                                                         2.494033      -0.347303
                                                         0.988355      -0.110323
                                                         0.344978       0.154096
                                                         0.099466       0.058386
                          1       5    4pz              10.077428      -0.112729
                                                         5.847736      -0.114008
                                                         2.494033      -0.347303
                                                         0.988355      -0.110323
                                                         0.344978       0.154096
                                                         0.099466       0.058386

                          1       6    4dx2             10.077428       8.232726
                                                         5.847736       9.105758
                                                         2.494033       2.849835
                                                         0.988355       0.554319
                                                         0.344978       0.067245
                                                         0.099466       0.001940
                          1       6    4dxy             10.077428      14.259500
                                                         5.847736      15.771636
                                                         2.494033       4.936060
                                                         0.988355       0.960109
                                                         0.344978       0.116472
                                                         0.099466       0.003360
                          1       6    4dxz             10.077428      14.259500
                                                         5.847736      15.771636
                                                         2.494033       4.936060
                                                         0.988355       0.960109
                                                         0.344978       0.116472
                                                         0.099466       0.003360
                          1       6    4dy2             10.077428       8.232726
                                                         5.847736       9.105758
                                                         2.494033       2.849835
                                                         0.988355       0.554319
                                                         0.344978       0.067245
                                                         0.099466       0.001940
                          1       6    4dyz             10.077428      14.259500
                                                         5.847736      15.771636
                                                         2.494033       4.936060
                                                         0.988355       0.960109
                                                         0.344978       0.116472
                                                         0.099466       0.003360
                          1       6    4dz2             10.077428       8.232726
                                                         5.847736       9.105758
                                                         2.494033       2.849835
                                                         0.988355       0.554319
                                                         0.344978       0.067245
                                                         0.099466       0.001940

                          1       7    5dx2             10.077428      -2.715373
                                                         5.847736      -4.020640
                                                         2.494033      -1.397569
                                                         0.988355      -0.076143
                                                         0.344978       0.033435
                                                         0.099466       0.026032
                          1       7    5dxy             10.077428      -4.703164
                                                         5.847736      -6.963952
                                                         2.494033      -2.420661
                                                         0.988355      -0.131883
                                                         0.344978       0.057911
                                                         0.099466       0.045088
                          1       7    5dxz             10.077428      -4.703164
                                                         5.847736      -6.963952
                                                         2.494033      -2.420661
                                                         0.988355      -0.131883
                                                         0.344978       0.057911
                                                         0.099466       0.045088
                          1       7    5dy2             10.077428      -2.715373
                                                         5.847736      -4.020640
                                                         2.494033      -1.397569
                                                         0.988355      -0.076143
                                                         0.344978       0.033435
                                                         0.099466       0.026032
                          1       7    5dyz             10.077428      -4.703164
                                                         5.847736      -6.963952
                                                         2.494033      -2.420661
                                                         0.988355      -0.131883
                                                         0.344978       0.057911
                                                         0.099466       0.045088
                          1       7    5dz2             10.077428      -2.715373
                                                         5.847736      -4.020640
                                                         2.494033      -1.397569
                                                         0.988355      -0.076143
                                                         0.344978       0.033435
                                                         0.099466       0.026032

                          1       8    5fx3             10.077428      -0.467694
                                                         5.847736       0.618100
                                                         2.494033       0.066069
                                                         0.988355       0.262898
                                                         0.344978       0.004720
                                                         0.099466       0.007748
                          1       8    5fx2y            10.077428      -1.045795
                                                         5.847736       1.382114
                                                         2.494033       0.147734
                                                         0.988355       0.587859
                                                         0.344978       0.010555
                                                         0.099466       0.017325
                          1       8    5fx2z            10.077428      -1.045795
                                                         5.847736       1.382114
                                                         2.494033       0.147734
                                                         0.988355       0.587859
                                                         0.344978       0.010555
                                                         0.099466       0.017325
                          1       8    5fxy2            10.077428      -1.045795
                                                         5.847736       1.382114
                                                         2.494033       0.147734
                                                         0.988355       0.587859
                                                         0.344978       0.010555
                                                         0.099466       0.017325
                          1       8    5fxyz            10.077428      -1.811371
                                                         5.847736       2.393892
                                                         2.494033       0.255883
                                                         0.988355       1.018201
                                                         0.344978       0.018282
                                                         0.099466       0.030008
                          1       8    5fxz2            10.077428      -1.045795
                                                         5.847736       1.382114
                                                         2.494033       0.147734
                                                         0.988355       0.587859
                                                         0.344978       0.010555
                                                         0.099466       0.017325
                          1       8    5fy3             10.077428      -0.467694
                                                         5.847736       0.618100
                                                         2.494033       0.066069
                                                         0.988355       0.262898
                                                         0.344978       0.004720
                                                         0.099466       0.007748
                          1       8    5fy2z            10.077428      -1.045795
                                                         5.847736       1.382114
                                                         2.494033       0.147734
                                                         0.988355       0.587859
                                                         0.344978       0.010555
                                                         0.099466       0.017325
                          1       8    5fyz2            10.077428      -1.045795
                                                         5.847736       1.382114
                                                         2.494033       0.147734
                                                         0.988355       0.587859
                                                         0.344978       0.010555
                                                         0.099466       0.017325
                          1       8    5fz3             10.077428      -0.467694
                                                         5.847736       0.618100
                                                         2.494033       0.066069
                                                         0.988355       0.262898
                                                         0.344978       0.004720
                                                         0.099466       0.007748

       Atomic covalent radius [Angstrom]:                                  1.150

       Atomic van der Waals radius [Angstrom]:                             1.630

     GTH Potential information for                                   GTH-PBE-q18

       Description:                       Goedecker-Teter-Hutter pseudopotential
                                           Goedecker et al., PRB 54, 1703 (1996)
                                          Hartwigsen et al., PRB 58, 3641 (1998)
                                                      Krack, TCA 114, 145 (2005)

       Gaussian exponent of the core charge distribution:               4.081633
       Electronic configuration (s p d ...):                           4   6   8

       Parameters of the local part of the GTH pseudopotential:

                          rloc        C1          C2          C3          C4
                        0.350000    2.102166    0.648484

       Parameters of the non-local part of the GTH pseudopotential:

                   l      r(l)      h(i,j,l)

                   0    0.261295    0.622658    9.970227
                                    9.970227  -12.871507
                   1    0.224253  -11.142708   12.429566
                                   12.429566  -14.706861
                   2    0.215348  -12.628146


 MOLECULE KIND INFORMATION


 All atoms are their own molecule, skipping detailed information


 TOTAL NUMBERS AND MAXIMUM NUMBERS

  Total number of            - Atomic kinds:                                   2
                             - Atoms:                                         32
                             - Shell sets:                                    32
                             - Shells:                                       256
                             - Primitive Cartesian functions:                192
                             - Cartesian basis functions:                    992
                             - Spherical basis functions:                    832

  Maximum angular momentum of- Orbital basis functions:                        3
                             - Local part of the GTH pseudopotential:          2
                             - Non-local part of the GTH pseudopotential:      3


 MODULE QUICKSTEP: ATOMIC COORDINATES IN ANGSTROM

   Atom Kind Element         X             Y             Z       Z(eff)     Mass
      1    1 Ni   28      0.876298      0.876298      7.370500  18.0000  58.6934
      2    1 Ni   28      0.876298      4.382298      7.370500  18.0000  58.6934
      3    1 Ni   28      2.629298      2.629298      7.370500  18.0000  58.6934
      4    1 Ni   28      2.629298      6.135298      7.370500  18.0000  58.6934
      5    1 Ni   28      4.382298      0.876298      7.370500  18.0000  58.6934
      6    1 Ni   28      4.382298      4.382298      7.370500  18.0000  58.6934
      7    1 Ni   28      6.135298      2.629298      7.370500  18.0000  58.6934
      8    1 Ni   28      6.135298      6.135298      7.370500  18.0000  58.6934
      9    2 Ni   28      0.876298      2.629298      9.123500  18.0000  58.6934
     10    2 Ni   28      0.876298      6.135298      9.123500  18.0000  58.6934
     11    2 Ni   28      2.629298      0.876298      9.123500  18.0000  58.6934
     12    2 Ni   28      2.629298      4.382298      9.123500  18.0000  58.6934
     13    2 Ni   28      4.382298      2.629298      9.123500  18.0000  58.6934
     14    2 Ni   28      4.382298      6.135298      9.123500  18.0000  58.6934
     15    2 Ni   28      6.135298      0.876298      9.123500  18.0000  58.6934
     16    2 Ni   28      6.135298      4.382298      9.123500  18.0000  58.6934
     17    2 Ni   28      0.876298      0.876298     10.876500  18.0000  58.6934
     18    2 Ni   28      0.876298      4.382298     10.876500  18.0000  58.6934
     19    2 Ni   28      2.629298      2.629298     10.876500  18.0000  58.6934
     20    2 Ni   28      2.629298      6.135298     10.876500  18.0000  58.6934
     21    2 Ni   28      4.382298      0.876298     10.876500  18.0000  58.6934
     22    2 Ni   28      4.382298      4.382298     10.876500  18.0000  58.6934
     23    2 Ni   28      6.135298      2.629298     10.876500  18.0000  58.6934
     24    2 Ni   28      6.135298      6.135298     10.876500  18.0000  58.6934
     25    1 Ni   28      0.876298      2.629298     12.629500  18.0000  58.6934
     26    1 Ni   28      0.876298      6.135298     12.629500  18.0000  58.6934
     27    1 Ni   28      2.629298      0.876298     12.629500  18.0000  58.6934
     28    1 Ni   28      2.629298      4.382298     12.629500  18.0000  58.6934
     29    1 Ni   28      4.382298      2.629298     12.629500  18.0000  58.6934
     30    1 Ni   28      4.382298      6.135298     12.629500  18.0000  58.6934
     31    1 Ni   28      6.135298      0.876298     12.629500  18.0000  58.6934
     32    1 Ni   28      6.135298      4.382298     12.629500  18.0000  58.6934



 SCF PARAMETERS         Density guess:                                    ATOMIC
                        --------------------------------------------------------
                        max_scf:                                             500
                        max_scf_history:                                       0
                        max_diis:                                              4
                        --------------------------------------------------------
                        eps_scf:                                        1.00E-03
                        eps_scf_history:                                0.00E+00
                        eps_diis:                                       1.00E-01
                        eps_eigval:                                     1.00E-05
                        --------------------------------------------------------
                        level_shift [a.u.]:                             0.000000
                        added MOs                                       535  552
                        --------------------------------------------------------
                        Mixing method:                            BROYDEN_MIXING
                                                charge density mixing in g-space
                        --------------------------------------------------------
                        Smear method:                                FERMI_DIRAC
                        Electronic temperature [K]:                       2000.0
                        Electronic temperature [a.u.]:                  6.33E-03
                        Accuracy threshold:                             1.00E-10
                        --------------------------------------------------------
                        No outer SCF

 PW_GRID| Information for grid number                                          1
 PW_GRID| Grid distributed over                                   128 processors
 PW_GRID| Real space group dimensions                                     8   16
 PW_GRID| the grid is blocked:                                               YES
 PW_GRID| Cutoff [a.u.]                                                    300.0
 PW_GRID| spherical cutoff:                                                   NO
 PW_GRID|   Bounds   1            -54      53                Points:         108
 PW_GRID|   Bounds   2            -54      53                Points:         108
 PW_GRID|   Bounds   3           -150     149                Points:         300
 PW_GRID| Volume element (a.u.^3)  0.1896E-02     Volume (a.u.^3)      6635.2971
 PW_GRID| Grid span                                                    FULLSPACE
 PW_GRID|   Distribution                         Average         Max         Min
 PW_GRID|   G-Vectors                            27337.5       28728       25272
 PW_GRID|   G-Rays                                 253.1         266         234
 PW_GRID|   Real Space Points                    27337.5       28728       25272

 PW_GRID| Information for grid number                                          2
 PW_GRID| Number of the reference grid                                         1
 PW_GRID| Grid distributed over                                   128 processors
 PW_GRID| Real space group dimensions                                     8   16
 PW_GRID| the grid is blocked:                                                NO
 PW_GRID| Cutoff [a.u.]                                                    100.0
 PW_GRID| spherical cutoff:                                                   NO
 PW_GRID|   Bounds   1            -30      29                Points:          60
 PW_GRID|   Bounds   2            -30      29                Points:          60
 PW_GRID|   Bounds   3            -90      89                Points:         180
 PW_GRID| Volume element (a.u.^3)  0.1024E-01     Volume (a.u.^3)      6635.2971
 PW_GRID| Grid span                                                    FULLSPACE
 PW_GRID|   Distribution                         Average         Max         Min
 PW_GRID|   G-Vectors                             5062.5       15960           0
 PW_GRID|   G-Rays                                  84.4         266           0
 PW_GRID|   Real Space Points                     5062.5        5760        3780

 PW_GRID| Information for grid number                                          3
 PW_GRID| Number of the reference grid                                         1
 PW_GRID| Grid distributed over                                   128 processors
 PW_GRID| Real space group dimensions                                     8   16
 PW_GRID| the grid is blocked:                                                NO
 PW_GRID| Cutoff [a.u.]                                                     33.3
 PW_GRID| spherical cutoff:                                                   NO
 PW_GRID|   Bounds   1            -18      17                Points:          36
 PW_GRID|   Bounds   2            -18      17                Points:          36
 PW_GRID|   Bounds   3            -50      49                Points:         100
 PW_GRID| Volume element (a.u.^3)  0.5120E-01     Volume (a.u.^3)      6635.2971
 PW_GRID| Grid span                                                    FULLSPACE
 PW_GRID|   Distribution                         Average         Max         Min
 PW_GRID|   G-Vectors                             1012.5        9576           0
 PW_GRID|   G-Rays                                  28.1         266           0
 PW_GRID|   Real Space Points                     1012.5        1500         800

 PW_GRID| Information for grid number                                          4
 PW_GRID| Number of the reference grid                                         1
 PW_GRID| Grid distributed over                                   128 processors
 PW_GRID| Real space group dimensions                                     8   16
 PW_GRID| the grid is blocked:                                                NO
 PW_GRID| Cutoff [a.u.]                                                     11.1
 PW_GRID| spherical cutoff:                                                   NO
 PW_GRID|   Bounds   1            -10       9                Points:          20
 PW_GRID|   Bounds   2            -10       9                Points:          20
 PW_GRID|   Bounds   3            -30      29                Points:          60
 PW_GRID| Volume element (a.u.^3)  0.2765         Volume (a.u.^3)      6635.2971
 PW_GRID| Grid span                                                    FULLSPACE
 PW_GRID|   Distribution                         Average         Max         Min
 PW_GRID|   G-Vectors                              187.5        3800           0
 PW_GRID|   G-Rays                                   9.4         190           0
 PW_GRID|   Real Space Points                      187.5         360         120

 PW_GRID| Information for grid number                                          5
 PW_GRID| Number of the reference grid                                         1
 PW_GRID| Grid distributed over                                   128 processors
 PW_GRID| Real space group dimensions                                     8   16
 PW_GRID| the grid is blocked:                                                NO
 PW_GRID| Cutoff [a.u.]                                                      3.7
 PW_GRID| spherical cutoff:                                                   NO
 PW_GRID|   Bounds   1             -6       5                Points:          12
 PW_GRID|   Bounds   2             -6       5                Points:          12
 PW_GRID|   Bounds   3            -18      17                Points:          36
 PW_GRID| Volume element (a.u.^3)   1.280         Volume (a.u.^3)      6635.2971
 PW_GRID| Grid span                                                    FULLSPACE
 PW_GRID|   Distribution                         Average         Max         Min
 PW_GRID|   G-Vectors                               40.5        1296           0
 PW_GRID|   G-Rays                                   3.4         108           0
 PW_GRID|   Real Space Points                       40.5          72           0

 POISSON| Solver                                                        PERIODIC
 POISSON| Periodicity                                                        XYZ

 RS_GRID| Information for grid number                                          1
 RS_GRID|   Bounds   1            -54      53                Points:         108
 RS_GRID|   Bounds   2            -54      53                Points:         108
 RS_GRID|   Bounds   3           -150     149                Points:         300
 RS_GRID| Real space distribution over                                  8 groups
 RS_GRID| Real space distribution along direction                              2
 RS_GRID| Border size                                                         28
 RS_GRID| Real space distribution over                                 16 groups
 RS_GRID| Real space distribution along direction                              3
 RS_GRID| Border size                                                         28
 RS_GRID|   Distribution                         Average         Max         Min
 RS_GRID|   Planes                                  69.5          70          69
 RS_GRID|   Distribution                         Average         Max         Min
 RS_GRID|   Planes                                  74.8          75          74

 RS_GRID| Information for grid number                                          2
 RS_GRID|   Bounds   1            -30      29                Points:          60
 RS_GRID|   Bounds   2            -30      29                Points:          60
 RS_GRID|   Bounds   3            -90      89                Points:         180
 RS_GRID| Real space fully replicated
 RS_GRID| Group size                                                           1

 RS_GRID| Information for grid number                                          3
 RS_GRID|   Bounds   1            -18      17                Points:          36
 RS_GRID|   Bounds   2            -18      17                Points:          36
 RS_GRID|   Bounds   3            -50      49                Points:         100
 RS_GRID| Real space fully replicated
 RS_GRID| Group size                                                           1

 RS_GRID| Information for grid number                                          4
 RS_GRID|   Bounds   1            -10       9                Points:          20
 RS_GRID|   Bounds   2            -10       9                Points:          20
 RS_GRID|   Bounds   3            -30      29                Points:          60
 RS_GRID| Real space fully replicated
 RS_GRID| Group size                                                           1

 RS_GRID| Information for grid number                                          5
 RS_GRID|   Bounds   1             -6       5                Points:          12
 RS_GRID|   Bounds   2             -6       5                Points:          12
 RS_GRID|   Bounds   3            -18      17                Points:          36
 RS_GRID| Real space fully replicated
 RS_GRID| Group size                                                           1

 Spin 1

 Number of electrons:                                                        296.880
 Number of occupied orbitals:                                                297
 Number of molecular orbitals:                                               832

 Spin 2

 Number of electrons:                                                        279.120
 Number of occupied orbitals:                                                280
 Number of molecular orbitals:                                               832

 Number of orbital functions:                                                832
 Number of independent orbital functions:                                    832

 Extrapolation method: initial_guess

 Atomic guess: The first density matrix is obtained in terms of atomic orbitals
               and electronic configurations assigned to each atomic kind

 Guess for atomic kind: Ni_i

 Electronic structure
    Total number of core electrons                                         10.00
    Total number of valence electrons                                      18.00
    Total number of electrons                                              28.00
    Multiplicity                                                         doublet
    Alpha Electrons
    S   [  1.00  1.00] 1.00  1.00
    P   [  3.00] 3.00
    D      4.35
    Beta Electrons
    S   [  1.00  1.00] 1.00  1.00
    P   [  3.00] 3.00
    D      3.65


 *******************************************************************************
                  Iteration          Convergence                     Energy [au]
 *******************************************************************************
                          1         1.51729                    -167.067424631347
                          2         15.3902                    -156.642654318634
                          3         2.33433                    -168.319355313541
                          4        0.206730                    -168.609905008081
                          5        0.814175E-01                -168.612873080494
                          6        0.173318E-01                -168.613470181066
                          7        0.290432E-02                -168.613543571401
                          8        0.311825E-02                -168.613543401474
                          9        0.179670E-03                -168.613544404477
                         10        0.169386E-02                -168.613544207811
                         11        0.473341E-03                -168.613544360253
                         12        0.165417E-03                -168.613544400419
                         13        0.162622E-03                -168.613544401489
                         14        0.158325E-03                -168.613544403900
                         15        0.177007E-03                -168.613544402509
                         16        0.138916E-03                -168.613544404900
                         17        0.934549E-04                -168.613544406149
                         18        0.119916E-03                -168.613544405789
                         19        0.131607E-03                -168.613544405591
                         20        0.169309E-03                -168.613544404773
                         21        0.551337E-04                -168.613544406656
                         22        0.382664E-04                -168.613544406759
                         23        0.378942E-04                -168.613544406765
                         24        0.381089E-04                -168.613544406765
                         25        0.390835E-04                -168.613544406759
                         26        0.308614E-04                -168.613544406841
                         27        0.205044E-04                -168.613544406892
                         28        0.200942E-04                -168.613544406893
                         29        0.199375E-04                -168.613544406893
                         30        0.200198E-04                -168.613544406894
                         31        0.161325E-04                -168.613544406903
                         32        0.330614E-05                -168.613544406925
                         33        0.238713E-05                -168.613544406926
                         34        0.265439E-05                -168.613544406926
                         35        0.277073E-05                -168.613544406926
                         36        0.335175E-05                -168.613544406926
                         37        0.148809E-05                -168.613544406927
                         38        0.133447E-05                -168.613544406927
                         39        0.918735E-06                -168.613544406927

 Energy components [Hartree]           Total Energy ::         -168.613544406927
                                        Band Energy ::          -26.569761966525
                                     Kinetic Energy ::           97.306723392622
                                   Potential Energy ::         -265.920267799548
                                      Virial (-V/T) ::            2.732804666812
                                        Core Energy ::         -299.567979157577
                                          XC Energy ::          -16.227189041387
                                     Coulomb Energy ::          147.181623792037
                       Total Pseudopotential Energy ::         -396.961043505191
                       Local Pseudopotential Energy ::         -362.648291121960
                    Nonlocal Pseudopotential Energy ::          -34.312752383230
                                        Confinement ::            0.863409549921

 Orbital energies  State     Spin  L     Occupation   Energy[a.u.]    Energy[eV]

                       1    alpha  0          1.000      -4.172666   -113.544030
                       2    alpha  0          1.000      -0.181431     -4.936983
                       1     beta  0          1.000      -4.140640   -112.672541
                       2     beta  0          1.000      -0.176372     -4.799339

                       1    alpha  1          3.000      -2.578739    -70.171064
                       1     beta  1          3.000      -2.547579    -69.323162

                       1    alpha  2          4.350      -0.327039     -8.899191
                       1     beta  2          3.650      -0.300569     -8.178887


 Total Electron Density at R=0:                                         0.030422

 Guess for atomic kind: Ni_b

 Electronic structure
    Total number of core electrons                                         10.00
    Total number of valence electrons                                      18.00
    Total number of electrons                                              28.00
    Multiplicity                                                         singlet
    Alpha Electrons
    S   [  1.00  1.00] 1.00  1.00
    P   [  3.00] 3.00
    D      4.21
    Beta Electrons
    S   [  1.00  1.00] 1.00  1.00
    P   [  3.00] 3.00
    D      3.79


 *******************************************************************************
                  Iteration          Convergence                     Energy [au]
 *******************************************************************************
                          1         1.51667                    -167.064189779746
                          2         14.7971                    -156.612841770198
                          3         2.22006                    -168.316610521244
                          4        0.181123                    -168.607251073045
                          5        0.659343E-01                -168.610057016194
                          6        0.105110E-01                -168.610476184599
                          7        0.717733E-02                -168.610496663307
                          8        0.586127E-02                -168.610497619460
                          9        0.114611E-02                -168.610500978549
                         10        0.266950E-02                -168.610500576149
                         11        0.914377E-03                -168.610501045164
                         12        0.161622E-03                -168.610501147803
                         13        0.107136E-03                -168.610501147595
                         14        0.923033E-04                -168.610501148988
                         15        0.146938E-03                -168.610501145999
                         16        0.264366E-04                -168.610501149676
                         17        0.277044E-04                -168.610501149610
                         18        0.364793E-04                -168.610501149674
                         19        0.239584E-04                -168.610501149725
                         20        0.420081E-04                -168.610501149632
                         21        0.974197E-05                -168.610501149761
                         22        0.780108E-05                -168.610501149764
                         23        0.633876E-05                -168.610501149768
                         24        0.721318E-05                -168.610501149766
                         25        0.960564E-05                -168.610501149763
                         26        0.141503E-05                -168.610501149772
                         27        0.391993E-06                -168.610501149772

 Energy components [Hartree]           Total Energy ::         -168.610501149772
                                        Band Energy ::          -26.568307938703
                                     Kinetic Energy ::           97.302613122981
                                   Potential Energy ::         -265.913114272752
                                      Virial (-V/T) ::            2.732846587960
                                        Core Energy ::         -299.565577998443
                                          XC Energy ::          -16.223706821359
                                     Coulomb Energy ::          147.178783670031
                       Total Pseudopotential Energy ::         -396.954531620600
                       Local Pseudopotential Energy ::         -362.643934013609
                    Nonlocal Pseudopotential Energy ::          -34.310597606991
                                        Confinement ::            0.863404991762

 Orbital energies  State     Spin  L     Occupation   Energy[a.u.]    Energy[eV]

                       1    alpha  0          1.000      -4.166360   -113.372414
                       2    alpha  0          1.000      -0.180412     -4.909259
                       1     beta  0          1.000      -4.147601   -112.861969
                       2     beta  0          1.000      -0.177450     -4.828657

                       1    alpha  1          3.000      -2.572603    -70.004079
                       1     beta  1          3.000      -2.554352    -69.507452

                       1    alpha  2          4.205      -0.321808     -8.756838
                       1     beta  2          3.795      -0.306303     -8.334922


 Total Electron Density at R=0:                                         0.030432

 Spin 1
 Re-scaling the density matrix to get the right number of electrons for spin 1
                  # Electrons              Trace(P)               Scaling factor
                        296.880             296.880                        1.000

 Spin 2
 Re-scaling the density matrix to get the right number of electrons for spin 2
                  # Electrons              Trace(P)               Scaling factor
                        279.120             279.120                        1.000


 SCF WAVEFUNCTION OPTIMIZATION

  Step     Update method      Time    Convergence         Total energy    Change
  ------------------------------------------------------------------------------
     1 NoMix/Diag. 0.80E-01    1.4     0.87323353     -5426.4317037727 -5.43E+03
[...]
   136 Broy./Diag. 0.80E-01    1.5     0.01690116     -5417.4942377137  3.00E-04
   137 Broy./Diag. 0.80E-01    1.5     0.01946756     -5417.4376337624  5.66E-02
   138 Broy./Diag. 0.80E-01    1.5     0.05356338     -5417.6327440894 -1.95E-01
   139 Broy./Diag. 0.80E-01    1.5     0.03310305     -5417.4572107382  1.76E-01
   140 Broy./Diag. 0.80E-01    1.5     0.03497304     -5417.4718244216 -1.46E-02
   141 Broy./Diag. 0.80E-01    1.5     0.02457824     -5417.4819298828 -1.01E-02
   142 Broy./Diag. 0.80E-01    1.5     0.00736764     -5417.6097320787 -1.28E-01
   143 Broy./Diag. 0.80E-01    1.5     0.04673626     -5417.7423602075 -1.33E-01
   144 Broy./Diag. 0.80E-01    1.5     0.08296731     -5417.7694963309 -2.71E-02
   145 Broy./Diag. 0.80E-01    1.5     0.03501463     -5417.7402039161  2.93E-02
   146 Broy./Diag. 0.80E-01    1.5     0.03200521     -5417.6135323653  1.27E-01
   147 Broy./Diag. 0.80E-01    1.5     0.00704849     -5417.6485838201 -3.51E-02
   148 Broy./Diag. 0.80E-01    1.5     0.01325351     -5417.4811145154  1.67E-01
   149 Broy./Diag. 0.80E-01    1.5     0.07331045     -5417.8898795998 -4.09E-01
   150 Broy./Diag. 0.80E-01    1.5     0.05124397     -5417.8108378315  7.90E-02
   151 Broy./Diag. 0.80E-01    1.5     0.03740024     -5417.6934256154  1.17E-01
   152 Broy./Diag. 0.80E-01    1.5     0.03036268     -5417.5807459241  1.13E-01
   153 Broy./Diag. 0.80E-01    1.5     0.02809242     -5417.7124867355 -1.32E-01
   154 Broy./Diag. 0.80E-01    1.5     0.07257290     -5417.9532568746 -2.41E-01
   155 Broy./Diag. 0.80E-01    1.5     0.00289979     -5417.9164110793  3.68E-02
   156 Broy./Diag. 0.80E-01    1.5     0.02506028     -5417.9401084029 -2.37E-02
   157 Broy./Diag. 0.80E-01    1.5     0.00830643     -5418.0518252719 -1.12E-01
   158 Broy./Diag. 0.80E-01    1.5     0.02889395     -5418.0016866552  5.01E-02
   159 Broy./Diag. 0.80E-01    1.5     0.01065076     -5418.1172301641 -1.16E-01
   160 Broy./Diag. 0.80E-01    1.5     0.04680433     -5418.2380317702 -1.21E-01
   161 Broy./Diag. 0.80E-01    1.5     0.02265079     -5418.1187641499  1.19E-01
   162 Broy./Diag. 0.80E-01    1.5     0.01222996     -5417.9878339801  1.31E-01
   163 Broy./Diag. 0.80E-01    1.5     0.00846113     -5417.7555441954  2.32E-01
   164 Broy./Diag. 0.80E-01    1.5     0.04142966     -5417.4800443963  2.75E-01
   165 Broy./Diag. 0.80E-01    1.5     0.03317901     -5417.2235498024  2.56E-01
   166 Broy./Diag. 0.80E-01    1.5     0.05144600     -5417.2406275035 -1.71E-02
   167 Broy./Diag. 0.80E-01    1.5     0.04399679     -5417.4660722066 -2.25E-01
   168 Broy./Diag. 0.80E-01    1.5     0.03515249     -5415.4940772670  1.97E+00
   169 Broy./Diag. 0.80E-01    1.5     0.04219441     -5416.7549206470 -1.26E+00
   170 Broy./Diag. 0.80E-01    1.5     0.06557803     -5417.3335095672 -5.79E-01
   171 Broy./Diag. 0.80E-01    1.5     0.02042228     -5417.1434202059  1.90E-01
   172 Broy./Diag. 0.80E-01    1.5     0.00892216     -5417.7605871588 -6.17E-01
   173 Broy./Diag. 0.80E-01    1.5     0.01260067     -5418.0907402606 -3.30E-01
   174 Broy./Diag. 0.80E-01    1.5     0.02450059     -5417.4568758162  6.34E-01
   175 Broy./Diag. 0.80E-01    1.5     0.05804764     -5417.5859077822 -1.29E-01
   176 Broy./Diag. 0.80E-01    1.5     0.00453042     -5418.3138183914 -7.28E-01
   177 Broy./Diag. 0.80E-01    1.5     0.06207791     -5418.4407715811 -1.27E-01
   178 Broy./Diag. 0.80E-01    1.5     0.05484355     -5417.9760555578  4.65E-01
   179 Broy./Diag. 0.80E-01    1.5     0.01899244     -5418.0673304074 -9.13E-02
   180 Broy./Diag. 0.80E-01    1.5     0.03668676     -5418.0323682080  3.50E-02
   181 Broy./Diag. 0.80E-01    1.5     0.02534875     -5418.1915850933 -1.59E-01
   182 Broy./Diag. 0.80E-01    1.5     0.01474219     -5418.4793889364 -2.88E-01
   183 Broy./Diag. 0.80E-01    1.5     0.06772433     -5418.5093190726 -2.99E-02
   184 Broy./Diag. 0.80E-01    1.5     0.00790506     -5417.8682131435  6.41E-01
   185 Broy./Diag. 0.80E-01    1.5     0.04436516     -5417.6599759804  2.08E-01
   186 Broy./Diag. 0.80E-01    1.5     0.00528798     -5417.5507146874  1.09E-01
   187 Broy./Diag. 0.80E-01    1.5     0.02594581     -5417.7289606680 -1.78E-01
   188 Broy./Diag. 0.80E-01    1.5     0.00396887     -5417.8837609231 -1.55E-01
   189 Broy./Diag. 0.80E-01    1.5     0.01322627     -5417.7063929958  1.77E-01
   190 Broy./Diag. 0.80E-01    1.5     0.01252155     -5417.5873253036  1.19E-01
   191 Broy./Diag. 0.80E-01    1.5     0.01864180     -5417.9039238594 -3.17E-01
   192 Broy./Diag. 0.80E-01    1.5     0.01133991     -5418.0605441157 -1.57E-01
   193 Broy./Diag. 0.80E-01    1.5     0.02199985     -5418.1332944696 -7.28E-02
   194 Broy./Diag. 0.80E-01    1.5     0.04474910     -5418.0483024422  8.50E-02
   195 Broy./Diag. 0.80E-01    1.5     0.05785455     -5418.1746437185 -1.26E-01
   196 Broy./Diag. 0.80E-01    1.5     0.02078780     -5418.2779438168 -1.03E-01
   197 Broy./Diag. 0.80E-01    1.5     0.01100578     -5418.1419844586  1.36E-01
   198 Broy./Diag. 0.80E-01    1.5     0.01168314     -5418.0815677708  6.04E-02
   199 Broy./Diag. 0.80E-01    1.5     0.03730532     -5418.1345250694 -5.30E-02
   200 Broy./Diag. 0.80E-01    1.5     0.00601090     -5418.3584403654 -2.24E-01
   201 Broy./Diag. 0.80E-01    1.5     0.05055209     -5418.3012797091  5.72E-02
   202 Broy./Diag. 0.80E-01    1.5     0.01925447     -5418.1754726747  1.26E-01
   203 Broy./Diag. 0.80E-01    1.5     0.03968472     -5418.2082313835 -3.28E-02
   204 Broy./Diag. 0.80E-01    1.5     0.01682003     -5418.0979565834  1.10E-01
   205 Broy./Diag. 0.80E-01    1.5     0.03855875     -5418.1438603930 -4.59E-02
   206 Broy./Diag. 0.80E-01    1.5     0.08754852     -5418.1687487026 -2.49E-02
   207 Broy./Diag. 0.80E-01    1.5     0.05083770     -5418.1383310754  3.04E-02
   208 Broy./Diag. 0.80E-01    1.5     0.01317436     -5417.9473485160  1.91E-01
   209 Broy./Diag. 0.80E-01    1.5     0.06723310     -5417.9709738159 -2.36E-02
   210 Broy./Diag. 0.80E-01    1.5     0.07447500     -5418.0685048778 -9.75E-02
   211 Broy./Diag. 0.80E-01    1.5     0.01445339     -5418.0671329891  1.37E-03
   212 Broy./Diag. 0.80E-01    1.5     0.02592787     -5418.0490091502  1.81E-02
   213 Broy./Diag. 0.80E-01    1.5     0.01132563     -5417.8548727136  1.94E-01
   214 Broy./Diag. 0.80E-01    1.5     0.00238153     -5418.0020457616 -1.47E-01
   215 Broy./Diag. 0.80E-01    1.5     0.04051919     -5417.9575114458  4.45E-02
   216 Broy./Diag. 0.80E-01    1.5     0.09987145     -5417.9289091922  2.86E-02
   217 Broy./Diag. 0.80E-01    1.5     0.03608854     -5418.2862045283 -3.57E-01
   218 Broy./Diag. 0.80E-01    1.5     0.05862102     -5418.0700678378  2.16E-01
   219 Broy./Diag. 0.80E-01    1.5     0.05038392     -5418.3379484575 -2.68E-01
   220 Broy./Diag. 0.80E-01    1.5     0.02954664     -5418.2092087446  1.29E-01
   221 Broy./Diag. 0.80E-01    1.5     0.02443168     -5418.2277396074 -1.85E-02
   222 Broy./Diag. 0.80E-01    1.5     0.04160906     -5418.4046546644 -1.77E-01
   223 Broy./Diag. 0.80E-01    1.5     0.21661870     -5418.2926846938  1.12E-01
   224 Broy./Diag. 0.80E-01    1.5     0.18504279     -5418.5775895093 -2.85E-01
   225 Broy./Diag. 0.80E-01    1.5     0.12511955     -5418.3218843205  2.56E-01
   226 Broy./Diag. 0.80E-01    1.5     0.37577480     -5416.0798275652  2.24E+00
   227 Broy./Diag. 0.80E-01    1.5     0.26403471     -5418.7604280614 -2.68E+00
   228 Broy./Diag. 0.80E-01    1.5     0.04173330     -5418.4143574824  3.46E-01
   229 Broy./Diag. 0.80E-01    1.5     0.09053369     -5418.2984810545  1.16E-01
   230 Broy./Diag. 0.80E-01    1.5     0.09638042     -5418.1826429367  1.16E-01
   231 Broy./Diag. 0.80E-01    1.5     0.06635789     -5417.8792767202  3.03E-01
   232 Broy./Diag. 0.80E-01    1.5     0.02978668     -5417.9884884503 -1.09E-01
   233 Broy./Diag. 0.80E-01    1.5     0.01963383     -5418.0331296572 -4.46E-02
   234 Broy./Diag. 0.80E-01    1.5     0.00726276     -5417.9820311454  5.11E-02
   235 Broy./Diag. 0.80E-01    1.5     0.03067720     -5418.0200746028 -3.80E-02
   236 Broy./Diag. 0.80E-01    1.5     0.08379465     -5417.9435508040  7.65E-02
   237 Broy./Diag. 0.80E-01    1.5     0.14233298     -5418.1381610886 -1.95E-01
   238 Broy./Diag. 0.80E-01    1.5     0.02286019     -5417.7116141432  4.27E-01
   239 Broy./Diag. 0.80E-01    1.5     0.03453593     -5417.1299628715  5.82E-01
   240 Broy./Diag. 0.80E-01    1.5     0.05778921     -5418.4459582900 -1.32E+00
   241 Broy./Diag. 0.80E-01    1.5     0.07890377     -5417.4038165393  1.04E+00
   242 Broy./Diag. 0.80E-01    1.5     0.08593630     -5418.1985715911 -7.95E-01
   243 Broy./Diag. 0.80E-01    1.5     0.02338255     -5418.7970229937 -5.98E-01
   244 Broy./Diag. 0.80E-01    1.5     0.02179361     -5418.4996649409  2.97E-01
   245 Broy./Diag. 0.80E-01    1.5     0.07723507     -5418.3829351982  1.17E-01
   246 Broy./Diag. 0.80E-01    1.5     0.06178498     -5418.5719601321 -1.89E-01
   247 Broy./Diag. 0.80E-01    1.5     0.12823742     -5418.4304011860  1.42E-01
   248 Broy./Diag. 0.80E-01    1.5     0.07208503     -5418.7545119978 -3.24E-01
   249 Broy./Diag. 0.80E-01    1.5     0.01961159     -5418.6277655090  1.27E-01
   250 Broy./Diag. 0.80E-01    1.5     0.19045587     -5418.6925342505 -6.48E-02
   251 Broy./Diag. 0.80E-01    1.5     0.14051267     -5416.9239294199  1.77E+00
   252 Broy./Diag. 0.80E-01    1.5     0.11259259     -5418.6382167319 -1.71E+00
   253 Broy./Diag. 0.80E-01    1.5     0.08938253     -5416.8927985995  1.75E+00
   254 Broy./Diag. 0.80E-01    1.5     0.09743576     -5416.9046806986 -1.19E-02
   255 Broy./Diag. 0.80E-01    1.5     0.08835668     -5417.7818751557 -8.77E-01
   256 Broy./Diag. 0.80E-01    1.5     0.05271559     -5416.4299297766  1.35E+00
   257 Broy./Diag. 0.80E-01    1.5     0.06799022     -5415.0345077286  1.40E+00
   258 Broy./Diag. 0.80E-01    1.5     0.10880764     -5417.9802143387 -2.95E+00
   259 Broy./Diag. 0.80E-01    1.5     0.07810274     -5410.7850107099  7.20E+00
   260 Broy./Diag. 0.80E-01    1.5     0.06031282     -5416.6211208217 -5.84E+00
   261 Broy./Diag. 0.80E-01    1.5     0.07680880     -5415.6291278008  9.92E-01
   262 Broy./Diag. 0.80E-01    1.5     0.15438415     -5415.3148886185  3.14E-01
   263 Broy./Diag. 0.80E-01    1.5     0.11092704     -5417.5266157962 -2.21E+00
   264 Broy./Diag. 0.80E-01    1.5     0.02853066     -5417.2141260220  3.12E-01
   265 Broy./Diag. 0.80E-01    1.5     0.05451562     -5417.8396247629 -6.25E-01
   266 Broy./Diag. 0.80E-01    1.5     0.13709665     -5417.7221936156  1.17E-01
   267 Broy./Diag. 0.80E-01    1.5     0.12748071     -5416.2234638504  1.50E+00
   268 Broy./Diag. 0.80E-01    1.5     0.11265523     -5418.8714779622 -2.65E+00
   269 Broy./Diag. 0.80E-01    1.5     0.20677040     -5415.7748835951  3.10E+00
   270 Broy./Diag. 0.80E-01    1.5     0.37887728     -5419.5209371024 -3.75E+00
   271 Broy./Diag. 0.80E-01    1.5     0.15217958     -5420.2514318789 -7.30E-01
   272 Broy./Diag. 0.80E-01    1.5     0.25026678     -5419.7788053729  4.73E-01
   273 Broy./Diag. 0.80E-01    1.5     0.09577809     -5413.9700535522  5.81E+00
   274 Broy./Diag. 0.80E-01    1.5     0.01628509     -5419.0386825788 -5.07E+00
   275 Broy./Diag. 0.80E-01    1.5     0.07398026     -5419.2266853985 -1.88E-01
   276 Broy./Diag. 0.80E-01    1.5     0.10944436     -5419.8078287570 -5.81E-01
   277 Broy./Diag. 0.80E-01    1.5     0.16164630     -5421.0763630760 -1.27E+00
   278 Broy./Diag. 0.80E-01    1.5     0.06958568     -5417.5538333832  3.52E+00
   279 Broy./Diag. 0.80E-01    1.5     0.04940971     -5419.2334692790 -1.68E+00
   280 Broy./Diag. 0.80E-01    1.5     0.13986634     -5418.2544092631  9.79E-01
   281 Broy./Diag. 0.80E-01    1.5     0.12626037     -5417.8743539678  3.80E-01
   282 Broy./Diag. 0.80E-01    1.5     0.05992240     -5416.3946183943  1.48E+00
   283 Broy./Diag. 0.80E-01    1.5     0.14902980     -5418.7920196135 -2.40E+00
   284 Broy./Diag. 0.80E-01    1.5     0.22368870     -5419.2525071287 -4.60E-01
   285 Broy./Diag. 0.80E-01    1.5     0.18264043     -5417.5470460797  1.71E+00
   286 Broy./Diag. 0.80E-01    1.5     0.01568484     -5418.7031520561 -1.16E+00
   287 Broy./Diag. 0.80E-01    1.5     0.09976114     -5417.5948406346  1.11E+00
   288 Broy./Diag. 0.80E-01    1.5     0.27316433     -5418.0720280176 -4.77E-01
   289 Broy./Diag. 0.80E-01    1.5     0.15797361     -5416.7837093355  1.29E+00
   290 Broy./Diag. 0.80E-01    1.5     0.09193969     -5417.8275735501 -1.04E+00
   291 Broy./Diag. 0.80E-01    1.5     0.14136110     -5417.0559791676  7.72E-01
   292 Broy./Diag. 0.80E-01    1.5     0.20425470     -5414.8492055570  2.21E+00
   293 Broy./Diag. 0.80E-01    1.5     0.07833994     -5416.9335605626 -2.08E+00
   294 Broy./Diag. 0.80E-01    1.5     0.12054047     -5418.5898070671 -1.66E+00
   295 Broy./Diag. 0.80E-01    1.5     0.09429643     -5417.7901591168  8.00E-01
   296 Broy./Diag. 0.80E-01    1.5     0.08326115     -5416.0384621756  1.75E+00
   297 Broy./Diag. 0.80E-01    1.5     0.01412274     -5417.0060897829 -9.68E-01
   298 Broy./Diag. 0.80E-01    1.5     0.00412899     -5417.0632464602 -5.72E-02
   299 Broy./Diag. 0.80E-01    1.5     0.16446562     -5417.0269069903  3.63E-02
   300 Broy./Diag. 0.80E-01    1.5     0.10298089     -5417.9509082128 -9.24E-01
   301 Broy./Diag. 0.80E-01    1.5     0.06348093     -5417.6724408145  2.78E-01
   302 Broy./Diag. 0.80E-01    1.5     0.09868027     -5411.4062974420  6.27E+00
   303 Broy./Diag. 0.80E-01    1.5     0.19556538     -5413.0117274861 -1.61E+00
   304 Broy./Diag. 0.80E-01    1.5     0.24842418     -5402.2752002708  1.07E+01
   305 Broy./Diag. 0.80E-01    1.5     0.08515979     -5412.8609077827 -1.06E+01
   306 Broy./Diag. 0.80E-01    1.5     0.14539583     -5416.7856471674 -3.92E+00
   307 Broy./Diag. 0.80E-01    1.5     0.24516166     -5413.2366268384  3.55E+00
   308 Broy./Diag. 0.80E-01    1.5     0.42944528     -5416.3126495352 -3.08E+00
   309 Broy./Diag. 0.80E-01    1.5     0.35378388     -5417.1215982496 -8.09E-01
   310 Broy./Diag. 0.80E-01    1.5     0.13987354     -5417.3403274463 -2.19E-01
   311 Broy./Diag. 0.80E-01    1.5     0.26474356     -5416.9089396179  4.31E-01
   312 Broy./Diag. 0.80E-01    1.5     0.27061940     -5417.3526496467 -4.44E-01
   313 Broy./Diag. 0.80E-01    1.5     0.05394321     -5415.6414007020  1.71E+00
   314 Broy./Diag. 0.80E-01    1.5     0.05050189     -5413.0631680157  2.58E+00
   315 Broy./Diag. 0.80E-01    1.5     0.26741754     -5413.4970711399 -4.34E-01
   316 Broy./Diag. 0.80E-01    1.5     0.02278003     -5416.9466642539 -3.45E+00
   317 Broy./Diag. 0.80E-01    1.5     0.04506647     -5417.6540488671 -7.07E-01
   318 Broy./Diag. 0.80E-01    1.5     0.10597467     -5417.0227279653  6.31E-01
   319 Broy./Diag. 0.80E-01    1.5     0.05516929     -5417.1664372252 -1.44E-01
   320 Broy./Diag. 0.80E-01    1.5     0.01053581     -5417.4947640867 -3.28E-01
   321 Broy./Diag. 0.80E-01    1.5     0.07220929     -5417.6921333203 -1.97E-01
   322 Broy./Diag. 0.80E-01    1.5     0.07815092     -5418.3361980232 -6.44E-01
   323 Broy./Diag. 0.80E-01    1.5     0.15057424     -5413.7200876858  4.62E+00
   324 Broy./Diag. 0.80E-01    1.5     0.06443078     -5415.9116500569 -2.19E+00
   325 Broy./Diag. 0.80E-01    1.5     0.04549892     -5418.5078287172 -2.60E+00
   326 Broy./Diag. 0.80E-01    1.5     0.04465307     -5418.3950393476  1.13E-01
   327 Broy./Diag. 0.80E-01    1.5     0.04150680     -5419.0998442167 -7.05E-01
   328 Broy./Diag. 0.80E-01    1.5     0.01597658     -5420.7324153741 -1.63E+00
   329 Broy./Diag. 0.80E-01    1.5     0.03711176     -5420.6098468723  1.23E-01
   330 Broy./Diag. 0.80E-01    1.5     0.20233377     -5420.7192500526 -1.09E-01
   331 Broy./Diag. 0.80E-01    1.5     0.18363417     -5401.9851289990  1.87E+01
   332 Broy./Diag. 0.80E-01    1.5     0.03334911     -5419.6549651127 -1.77E+01
   333 Broy./Diag. 0.80E-01    1.5     0.10809383     -5419.1222437988  5.33E-01
   334 Broy./Diag. 0.80E-01    1.5     0.08756352     -5412.9935342836  6.13E+00
   335 Broy./Diag. 0.80E-01    1.5     0.02629981     -5418.8539853372 -5.86E+00
   336 Broy./Diag. 0.80E-01    1.5     0.04390002     -5421.0531194882 -2.20E+00
   337 Broy./Diag. 0.80E-01    1.5     0.03052829     -5421.1228512554 -6.97E-02
   338 Broy./Diag. 0.80E-01    1.5     0.05300802     -5421.1133396364  9.51E-03
   339 Broy./Diag. 0.80E-01    1.5     0.03755191     -5421.3252105348 -2.12E-01
   340 Broy./Diag. 0.80E-01    1.5     0.23514460     -5420.0282665141  1.30E+00
   341 Broy./Diag. 0.80E-01    1.5     0.39478405     -5415.4445935128  4.58E+00
   342 Broy./Diag. 0.80E-01    1.5     0.19228920     -5418.0362404122 -2.59E+00
   343 Broy./Diag. 0.80E-01    1.5     0.17528529     -5420.3015794556 -2.27E+00
   344 Broy./Diag. 0.80E-01    1.5     0.07978970     -5417.7116490780  2.59E+00
   345 Broy./Diag. 0.80E-01    1.5     0.14567376     -5413.0145765467  4.70E+00
   346 Broy./Diag. 0.80E-01    1.5     0.07712034     -5417.7485221380 -4.73E+00
   347 Broy./Diag. 0.80E-01    1.5     0.02810755     -5416.8877719146  8.61E-01
   348 Broy./Diag. 0.80E-01    1.5     0.09849076     -5414.2681361843  2.62E+00
   349 Broy./Diag. 0.80E-01    1.5     0.20088616     -5414.3432416152 -7.51E-02
   350 Broy./Diag. 0.80E-01    1.5     0.10503520     -5413.5374224602  8.06E-01
   351 Broy./Diag. 0.80E-01    1.5     0.12654777     -5412.5477842202  9.90E-01
   352 Broy./Diag. 0.80E-01    1.5     0.31465501     -5414.0851615957 -1.54E+00
   353 Broy./Diag. 0.80E-01    1.5     0.15572971     -5419.0992068788 -5.01E+00
   354 Broy./Diag. 0.80E-01    1.5     0.13005355     -5414.6541754702  4.45E+00
   355 Broy./Diag. 0.80E-01    1.5     0.38583171     -5405.2499342024  9.40E+00
   356 Broy./Diag. 0.80E-01    1.5     0.38852246     -5408.7725579267 -3.52E+00
   357 Broy./Diag. 0.80E-01    1.5     0.06041398     -5417.3319766804 -8.56E+00
   358 Broy./Diag. 0.80E-01    1.5     0.12273453     -5416.1160735765  1.22E+00
   359 Broy./Diag. 0.80E-01    1.5     0.11740103     -5404.3003777577  1.18E+01
   360 Broy./Diag. 0.80E-01    1.5     0.21242238     -5408.9836792348 -4.68E+00
   361 Broy./Diag. 0.80E-01    1.5     0.11740336     -5405.4417051877  3.54E+00
   362 Broy./Diag. 0.80E-01    1.5     0.02387650     -5408.3385318218 -2.90E+00
   363 Broy./Diag. 0.80E-01    1.5     0.07800533     -5407.8329053980  5.06E-01
   364 Broy./Diag. 0.80E-01    1.5     0.08234853     -5413.5568392808 -5.72E+00
   365 Broy./Diag. 0.80E-01    1.5     0.30887120     -5415.8814288823 -2.32E+00
   366 Broy./Diag. 0.80E-01    1.5     0.09702400     -5415.2356059795  6.46E-01
   367 Broy./Diag. 0.80E-01    1.5     0.26490118     -5416.9210235077 -1.69E+00
   368 Broy./Diag. 0.80E-01    1.5     0.32148459     -5398.9721555674  1.79E+01
   369 Broy./Diag. 0.80E-01    1.5     0.13665452     -5415.7983794129 -1.68E+01
   370 Broy./Diag. 0.80E-01    1.5     0.08116661     -5417.9909652032 -2.19E+00
   371 Broy./Diag. 0.80E-01    1.5     0.04877614     -5419.7363035993 -1.75E+00
   372 Broy./Diag. 0.80E-01    1.5     0.06351053     -5420.2920415738 -5.56E-01
   373 Broy./Diag. 0.80E-01    1.5     0.06057218     -5419.5406650911  7.51E-01
   374 Broy./Diag. 0.80E-01    1.5     0.07957183     -5419.9770182392 -4.36E-01
   375 Broy./Diag. 0.80E-01    1.5     0.06960514     -5419.2744229994  7.03E-01
   376 Broy./Diag. 0.80E-01    1.5     0.11452543     -5419.1070146126  1.67E-01
   377 Broy./Diag. 0.80E-01    1.5     0.22206948     -5419.2649755719 -1.58E-01
   378 Broy./Diag. 0.80E-01    1.5     0.13223317     -5417.6897801786  1.58E+00
   379 Broy./Diag. 0.80E-01    1.5     0.11115782     -5419.8704290346 -2.18E+00
   380 Broy./Diag. 0.80E-01    1.5     0.20636615     -5416.4581945046  3.41E+00
   381 Broy./Diag. 0.80E-01    1.5     0.25838962     -5417.7886507330 -1.33E+00
