 DBCSR| CPU Multiplication driver                                           XSMM (U)
 DBCSR| Multrec recursion limit                                              512 (U)
 DBCSR| Multiplication stack size                                           1000 (D)
 DBCSR| Maximum elements for images                                    UNLIMITED (U)
 DBCSR| Multiplicative factor virtual images                                   1 (U)
 DBCSR| Use multiplication densification                                       T (D)
 DBCSR| Multiplication size stacks                                             3 (U)
 DBCSR| Use memory pool for CPU allocation                                     F (U)
 DBCSR| Number of 3D layers                                               SINGLE (U)
 DBCSR| Use MPI memory allocation                                              F (U)
 DBCSR| Use RMA algorithm                                                      F (U)
 DBCSR| Use Communication thread                                               T (U)
 DBCSR| Communication thread load                                             87 (D)
 DBCSR| MPI: My process id                                                     0
 DBCSR| MPI: Number of processes                                             128
 DBCSR| OMP: Current number of threads                                         1
 DBCSR| OMP: Max number of threads                                             1
 DBCSR| Split modifier for TAS multiplication algorithm                  1.0E+00 (U)


  **** **** ******  **  PROGRAM STARTED AT               2023-05-13 22:04:58.656
 ***** ** ***  *** **   PROGRAM STARTED ON                             nid002726
 **    ****   ******    PROGRAM STARTED BY                                cahart
 ***** **    ** ** **   PROGRAM PROCESS ID                                 37696
  **** **  *******  **  PROGRAM STARTED IN /mnt/lustre/a2fs-work2/work/e05/e05/c
                                           ahart/postdoc/masters/pt3ni/yike-111/
                                           fm/convergence/magnetization/scf-5E-4
                                           /testing/raw_dev_pbesol-d3_tzv2p_4-4-
                                           1_4e-2_4e-3_16_100_2000/Ni-0.7-0.5-0.
                                           7_Pt-0.05-0.00

 CP2K| version string:                 CP2K version 2023.1 (Development Version)
 CP2K| source code revision number:                                  git:964cd58
 CP2K| cp2kflags: omp libint fftw3 libxc elpa parallel scalapack xsmm plumed2 mk
 CP2K|            l
 CP2K| is freely available from                            https://www.cp2k.org/
 CP2K| Program compiled at                          Mon 13 Feb 17:05:14 GMT 2023
 CP2K| Program compiled on                                                  ln01
 CP2K| Program compiled for                                              ARCHER2
 CP2K| Data directory path    /work/e05/e05/cahart/cp2k/cp2k-2023.1/cp2k-2023.1-
 CP2K| Input file name                                                 input.inp

 GLOBAL| Force Environment number                                              1
 GLOBAL| Basis set file name                                    BASIS_MOLOPT_UCL
 GLOBAL| Potential file name                                      GTH_POTENTIALS
 GLOBAL| MM Potential file name                                     MM_POTENTIAL
 GLOBAL| Coordinate file name                                         struct.xyz
 GLOBAL| Method name                                                        CP2K
 GLOBAL| Project name                                                      Pt3Ni
 GLOBAL| Run type                                                         ENERGY
 GLOBAL| FFT library                                                       FFTW3
 GLOBAL| Diagonalization library                                            ELPA
 GLOBAL| DGEMM library                                                      BLAS
 GLOBAL| Minimum number of eigenvectors for ELPA usage                        16
 GLOBAL| Orthonormality check for eigenvectors                          DISABLED
 GLOBAL| Matrix multiplication library                                 ScaLAPACK
 GLOBAL| All-to-all communication in single precision                          F
 GLOBAL| FFTs using library dependent lengths                                  F
 GLOBAL| Grid backend                                                       AUTO
 GLOBAL| Global print level                                               MEDIUM
 GLOBAL| MPI I/O enabled                                                       T
 GLOBAL| Total number of message passing processes                           128
 GLOBAL| Number of threads for this process                                    1
 GLOBAL| This output is from process                                           0
 GLOBAL| Stack size for threads created by OpenMP (OMP_STACKSIZE)        default
 GLOBAL| CPU model name                          AMD EPYC 7742 64-Core Processor
 GLOBAL| CPUID                                                              1002

 MEMORY| system memory details [Kb]
 MEMORY|                        rank 0           min           max       average
 MEMORY| MemTotal            263528084     263528084     263528084     263528084
 MEMORY| MemFree             238505520     238505520     238505520     238505520
 MEMORY| Buffers                 37988         37988         37988         37988
 MEMORY| Cached                 802768        802768        802768        802768
 MEMORY| Slab                  1668148       1668148       1668148       1668148
 MEMORY| SReclaimable            98664         98664         98664         98664
 MEMORY| MemLikelyFree       239444940     239444940     239444940     239444940


 *** Fundamental physical constants (SI units) ***

 *** Literature: B. J. Mohr and B. N. Taylor,
 ***             CODATA recommended values of the fundamental physical
 ***             constants: 2006, Web Version 5.1
 ***             http://physics.nist.gov/constants

 Speed of light in vacuum [m/s]                             2.99792458000000E+08
 Magnetic constant or permeability of vacuum [N/A**2]       1.25663706143592E-06
 Electric constant or permittivity of vacuum [F/m]          8.85418781762039E-12
 Planck constant (h) [J*s]                                  6.62606896000000E-34
 Planck constant (h-bar) [J*s]                              1.05457162825177E-34
 Elementary charge [C]                                      1.60217648700000E-19
 Electron mass [kg]                                         9.10938215000000E-31
 Electron g factor [ ]                                     -2.00231930436220E+00
 Proton mass [kg]                                           1.67262163700000E-27
 Fine-structure constant                                    7.29735253760000E-03
 Rydberg constant [1/m]                                     1.09737315685270E+07
 Avogadro constant [1/mol]                                  6.02214179000000E+23
 Boltzmann constant [J/K]                                   1.38065040000000E-23
 Atomic mass unit [kg]                                      1.66053878200000E-27
 Bohr radius [m]                                            5.29177208590000E-11

 *** Conversion factors ***

 [u] -> [a.u.]                                              1.82288848426455E+03
 [Angstrom] -> [Bohr] = [a.u.]                              1.88972613288564E+00
 [a.u.] = [Bohr] -> [Angstrom]                              5.29177208590000E-01
 [a.u.] -> [s]                                              2.41888432650478E-17
 [a.u.] -> [fs]                                             2.41888432650478E-02
 [a.u.] -> [J]                                              4.35974393937059E-18
 [a.u.] -> [N]                                              8.23872205491840E-08
 [a.u.] -> [K]                                              3.15774647902944E+05
 [a.u.] -> [kJ/mol]                                         2.62549961709828E+03
 [a.u.] -> [kcal/mol]                                       6.27509468713739E+02
 [a.u.] -> [Pa]                                             2.94210107994716E+13
 [a.u.] -> [bar]                                            2.94210107994716E+08
 [a.u.] -> [atm]                                            2.90362800883016E+08
 [a.u.] -> [eV]                                             2.72113838565563E+01
 [a.u.] -> [Hz]                                             6.57968392072181E+15
 [a.u.] -> [1/cm] (wave numbers)                            2.19474631370540E+05
 [a.u./Bohr**2] -> [1/cm]                                   5.14048714338585E+03
 

 CELL_TOP| Volume [angstrom^3]:                                      2213.590108
 CELL_TOP| Vector a [angstrom     9.378     0.000     0.000   |a| =     9.378000
 CELL_TOP| Vector b [angstrom    -4.689     8.122     0.000   |b| =     9.378358
 CELL_TOP| Vector c [angstrom     0.000     0.000    29.062   |c| =    29.061899
 CELL_TOP| Angle (b,c), alpha [degree]:                                90.000000
 CELL_TOP| Angle (a,c), beta  [degree]:                                90.000000
 CELL_TOP| Angle (a,b), gamma [degree]:                               119.998736
 CELL_TOP| Numerically orthorhombic:                                          NO
 CELL_TOP| Periodicity                                                       XYZ

 GENERATE|  Preliminary Number of Bonds generated:                             0
 GENERATE|  Achieved consistency in connectivity generation.

 CELL| Volume [angstrom^3]:                                          2213.590108
 CELL| Vector a [angstrom]:       9.378     0.000     0.000   |a| =     9.378000
 CELL| Vector b [angstrom]:      -4.689     8.122     0.000   |b| =     9.378358
 CELL| Vector c [angstrom]:       0.000     0.000    29.062   |c| =    29.061899
 CELL| Angle (b,c), alpha [degree]:                                    90.000000
 CELL| Angle (a,c), beta  [degree]:                                    90.000000
 CELL| Angle (a,b), gamma [degree]:                                   119.998736
 CELL| Numerically orthorhombic:                                              NO
 CELL| Periodicity                                                           XYZ

 CELL_REF| Volume [angstrom^3]:                                      2213.590108
 CELL_REF| Vector a [angstrom     9.378     0.000     0.000   |a| =     9.378000
 CELL_REF| Vector b [angstrom    -4.689     8.122     0.000   |b| =     9.378358
 CELL_REF| Vector c [angstrom     0.000     0.000    29.062   |c| =    29.061899
 CELL_REF| Angle (b,c), alpha [degree]:                                90.000000
 CELL_REF| Angle (a,c), beta  [degree]:                                90.000000
 CELL_REF| Angle (a,b), gamma [degree]:                               119.998736
 CELL_REF| Numerically orthorhombic:                                          NO
 CELL_REF| Periodicity                                                       XYZ

 *** WARNING in cryssym.F:165 :: Symmetry library SPGLIB not available ***


 *******************************************************************************
                                    Kpoints
 *******************************************************************************
 BRILLOUIN| K-point scheme                                        Monkhorst-Pack
 BRILLOUIN| K-Point grid                                             4    4    1
 BRILLOUIN| Accuracy in Symmetry determination                      0.100000E-05
 BRILLOUIN| K-Point point group symmetrization                               OFF
 BRILLOUIN| Wavefunction type                                            COMPLEX
 BRILLOUIN| List of Kpoints [2 Pi/Bohr]                                        8
 BRILLOUIN| Number           Weight            X              Y              Z
 BRILLOUIN|     1           0.12500       -0.37500       -0.37500        0.00000
 BRILLOUIN|     2           0.12500       -0.37500       -0.12500        0.00000
 BRILLOUIN|     3           0.12500       -0.37500        0.12500        0.00000
 BRILLOUIN|     4           0.12500       -0.37500        0.37500        0.00000
 BRILLOUIN|     5           0.12500       -0.12500       -0.37500        0.00000
 BRILLOUIN|     6           0.12500       -0.12500       -0.12500        0.00000
 BRILLOUIN|     7           0.12500       -0.12500        0.12500        0.00000
 BRILLOUIN|     8           0.12500       -0.12500        0.37500        0.00000
 *******************************************************************************

 *******************************************************************************
 *******************************************************************************
 **                                                                           **
 **     #####                         ##              ##                      **
 **    ##   ##            ##          ##              ##                      **
 **   ##     ##                       ##            ######                    **
 **   ##     ##  ##   ##  ##   #####  ##  ##   ####   ##    #####    #####    **
 **   ##     ##  ##   ##  ##  ##      ## ##   ##      ##   ##   ##  ##   ##   **
 **   ##  ## ##  ##   ##  ##  ##      ####     ###    ##   ######   ######    **
 **    ##  ###   ##   ##  ##  ##      ## ##      ##   ##   ##       ##        **
 **     #######   #####   ##   #####  ##  ##  ####    ##    #####   ##        **
 **           ##                                                    ##        **
 **                                                                           **
 **                                                ... make the atoms dance   **
 **                                                                           **
 **            Copyright (C) by CP2K developers group (2000-2023)             **
 **                      J. Chem. Phys. 152, 194103 (2020)                    **
 **                                                                           **
 *******************************************************************************

 *** WARNING in qs_environment.F:1456 :: Number of electrons will be ***
 *** overwritten by NELEC_ALPHA and NELEC_BETA, multiplicity will be ***
 *** ignored.                                                        ***

 Number of electrons should be                                              1080
 Sum of NELEC_ALPHA and NELEC_BETA is                                   1080.000

 *** WARNING in qs_environment.F:1488 :: NELEC_ALPHA is not an integer, ***
 *** many features will not be supported.                               ***


 *** WARNING in qs_environment.F:1500 :: NELEC_BETA is not an integer, ***
 *** many features will not be supported.                              ***


 *** WARNING in qs_environment.F:1572 :: Kpoints: Different number of MOs   ***
 *** requested. The number of beta MOs will be set to the number alpha MOs. ***


 DFT| Spin unrestricted (spin-polarized) Kohn-Sham calculation               UKS
 DFT| Multiplicity                                                            12
 DFT| Number of spin states                                                    2
 DFT| Charge                                                                   0
 DFT| Self-interaction correction (SIC)                                       NO
 DFT| Cutoffs: density                                              1.000000E-10
 DFT|          gradient                                             1.000000E-10
 DFT|          tau                                                  1.000000E-10
 DFT|          cutoff_smoothing_range                               0.000000E+00
 DFT| XC density smoothing                                                  NONE
 DFT| XC derivatives                                                          PW

 FUNCTIONAL| PBE:
 FUNCTIONAL| PBEsol, J.P. Perdew et al., Phys. Rev. Letter, vol 100,n 13, p. 136
 FUNCTIONAL| 406, (2008) {spin polarized}                                       

 vdW POTENTIAL|                                                   Pair Potential
 vdW POTENTIAL|          DFT-D3 (Version 3.1)
 vdW POTENTIAL|          Potential Form: S. Grimme et al, JCP 132: 154104 (2010)
 vdW POTENTIAL|          BJ Damping: S. Grimme et al, JCC 32: 1456 (2011)
 vdW POTENTIAL|          Cutoff Radius [Bohr]:                             20.00
 vdW POTENTIAL|          s6 Scaling Factor:                               1.0000
 vdW POTENTIAL|          a1 Damping Factor:                               0.4289
 vdW POTENTIAL|          s8 Scaling Factor:                               0.7875
 vdW POTENTIAL|          a2 Damping Factor:                               4.4407
 vdW POTENTIAL|          Cutoff for CN calculation:                   0.1000E-05

 QS| Method:                                                                 GPW
 QS| Density plane wave grid type                        NON-SPHERICAL FULLSPACE
 QS| Number of grid levels:                                                    4
 QS| Density cutoff [a.u.]:                                                250.0
 QS| Multi grid cutoff [a.u.]: 1) grid level                               250.0
 QS|                           2) grid level                                83.3
 QS|                           3) grid level                                27.8
 QS|                           4) grid level                                 9.3
 QS| Grid level progression factor:                                          3.0
 QS| Relative density cutoff [a.u.]:                                        30.0
 QS| Interaction thresholds: eps_pgf_orb:                                1.0E-07
 QS|                         eps_filter_matrix:                          0.0E+00
 QS|                         eps_core_charge:                            1.0E-16
 QS|                         eps_rho_gspace:                             1.0E-14
 QS|                         eps_rho_rspace:                             1.0E-14
 QS|                         eps_gvg_rspace:                             1.0E-07
 QS|                         eps_ppl:                                    1.0E-02
 QS|                         eps_ppnl:                                   1.0E-09


 ATOMIC KIND INFORMATION

  1. Atomic kind: Pt_1                                  Number of atoms:      12

     Orbital Basis Set                                       TZV2P-MOLOPT-SR-GTH

       Number of orbital shell sets:                                           1
       Number of orbital shells:                                              12
       Number of primitive Cartesian functions:                                6
       Number of Cartesian basis functions:                                   51
       Number of spherical basis functions:                                   42
       Norm type:                                                              2

       Normalised Cartesian orbitals:

                        Set   Shell   Orbital            Exponent    Coefficient

                          1       1    2s                3.630668      -0.847440
                                                         3.114659       1.689294
                                                         1.999981      -0.894971
                                                         0.885340      -0.073397
                                                         0.330796      -0.102641
                                                         0.105770      -0.062718

                          1       2    3s                3.630668       0.243351
                                                         3.114659       0.525701
                                                         1.999981      -0.353221
                                                         0.885340      -0.194501
                                                         0.330796       0.133188
                                                         0.105770       0.103550

                          1       3    4s                3.630668      -1.677553
                                                         3.114659       0.139051
                                                         1.999981       0.229740
                                                         0.885340       0.871789
                                                         0.330796      -0.602921
                                                         0.105770       0.232545

                          1       4    5s                3.630668      -0.062404
                                                         3.114659       0.351232
                                                         1.999981       0.123855
                                                         0.885340       0.321458
                                                         0.330796       0.106151
                                                         0.105770      -0.005044

                          1       5    3px               3.630668       3.424246
                                                         3.114659      -1.519057
                                                         1.999981      -1.430196
                                                         0.885340      -0.729849
                                                         0.330796      -0.098096
                                                         0.105770       0.013096
                          1       5    3py               3.630668       3.424246
                                                         3.114659      -1.519057
                                                         1.999981      -1.430196
                                                         0.885340      -0.729849
                                                         0.330796      -0.098096
                                                         0.105770       0.013096
                          1       5    3pz               3.630668       3.424246
                                                         3.114659      -1.519057
                                                         1.999981      -1.430196
                                                         0.885340      -0.729849
                                                         0.330796      -0.098096
                                                         0.105770       0.013096

                          1       6    4px               3.630668      -0.958884
                                                         3.114659       0.556877
                                                         1.999981       0.077752
                                                         0.885340      -0.184445
                                                         0.330796       0.139403
                                                         0.105770       0.065163
                          1       6    4py               3.630668      -0.958884
                                                         3.114659       0.556877
                                                         1.999981       0.077752
                                                         0.885340      -0.184445
                                                         0.330796       0.139403
                                                         0.105770       0.065163
                          1       6    4pz               3.630668      -0.958884
                                                         3.114659       0.556877
                                                         1.999981       0.077752
                                                         0.885340      -0.184445
                                                         0.330796       0.139403
                                                         0.105770       0.065163

                          1       7    5px               3.630668       1.363347
                                                         3.114659      -1.970560
                                                         1.999981       1.710611
                                                         0.885340       1.217896
                                                         0.330796      -0.597455
                                                         0.105770       0.096067
                          1       7    5py               3.630668       1.363347
                                                         3.114659      -1.970560
                                                         1.999981       1.710611
                                                         0.885340       1.217896
                                                         0.330796      -0.597455
                                                         0.105770       0.096067
                          1       7    5pz               3.630668       1.363347
                                                         3.114659      -1.970560
                                                         1.999981       1.710611
                                                         0.885340       1.217896
                                                         0.330796      -0.597455
                                                         0.105770       0.096067

                          1       8    4dx2              3.630668      -5.982573
                                                         3.114659       4.610182
                                                         1.999981       0.721675
                                                         0.885340       0.676993
                                                         0.330796       0.105602
                                                         0.105770       0.001692
                          1       8    4dxy              3.630668     -10.362121
                                                         3.114659       7.985070
                                                         1.999981       1.249978
                                                         0.885340       1.172587
                                                         0.330796       0.182908
                                                         0.105770       0.002930
                          1       8    4dxz              3.630668     -10.362121
                                                         3.114659       7.985070
                                                         1.999981       1.249978
                                                         0.885340       1.172587
                                                         0.330796       0.182908
                                                         0.105770       0.002930
                          1       8    4dy2              3.630668      -5.982573
                                                         3.114659       4.610182
                                                         1.999981       0.721675
                                                         0.885340       0.676993
                                                         0.330796       0.105602
                                                         0.105770       0.001692
                          1       8    4dyz              3.630668     -10.362121
                                                         3.114659       7.985070
                                                         1.999981       1.249978
                                                         0.885340       1.172587
                                                         0.330796       0.182908
                                                         0.105770       0.002930
                          1       8    4dz2              3.630668      -5.982573
                                                         3.114659       4.610182
                                                         1.999981       0.721675
                                                         0.885340       0.676993
                                                         0.330796       0.105602
                                                         0.105770       0.001692

                          1       9    5dx2              3.630668       1.813969
                                                         3.114659      -2.312290
                                                         1.999981       0.780807
                                                         0.885340      -0.226709
                                                         0.330796       0.076393
                                                         0.105770       0.026538
                          1       9    5dxy              3.630668       3.141887
                                                         3.114659      -4.005004
                                                         1.999981       1.352397
                                                         0.885340      -0.392672
                                                         0.330796       0.132317
                                                         0.105770       0.045966
                          1       9    5dxz              3.630668       3.141887
                                                         3.114659      -4.005004
                                                         1.999981       1.352397
                                                         0.885340      -0.392672
                                                         0.330796       0.132317
                                                         0.105770       0.045966
                          1       9    5dy2              3.630668       1.813969
                                                         3.114659      -2.312290
                                                         1.999981       0.780807
                                                         0.885340      -0.226709
                                                         0.330796       0.076393
                                                         0.105770       0.026538
                          1       9    5dyz              3.630668       3.141887
                                                         3.114659      -4.005004
                                                         1.999981       1.352397
                                                         0.885340      -0.392672
                                                         0.330796       0.132317
                                                         0.105770       0.045966
                          1       9    5dz2              3.630668       1.813969
                                                         3.114659      -2.312290
                                                         1.999981       0.780807
                                                         0.885340      -0.226709
                                                         0.330796       0.076393
                                                         0.105770       0.026538

                          1      10    6dx2              3.630668       4.007318
                                                         3.114659      -6.556830
                                                         1.999981       3.426876
                                                         0.885340       1.241795
                                                         0.330796      -0.137555
                                                         0.105770       0.004863
                          1      10    6dxy              3.630668       6.940878
                                                         3.114659     -11.356762
                                                         1.999981       5.935524
                                                         0.885340       2.150852
                                                         0.330796      -0.238251
                                                         0.105770       0.008423
                          1      10    6dxz              3.630668       6.940878
                                                         3.114659     -11.356762
                                                         1.999981       5.935524
                                                         0.885340       2.150852
                                                         0.330796      -0.238251
                                                         0.105770       0.008423
                          1      10    6dy2              3.630668       4.007318
                                                         3.114659      -6.556830
                                                         1.999981       3.426876
                                                         0.885340       1.241795
                                                         0.330796      -0.137555
                                                         0.105770       0.004863
                          1      10    6dyz              3.630668       6.940878
                                                         3.114659     -11.356762
                                                         1.999981       5.935524
                                                         0.885340       2.150852
                                                         0.330796      -0.238251
                                                         0.105770       0.008423
                          1      10    6dz2              3.630668       4.007318
                                                         3.114659      -6.556830
                                                         1.999981       3.426876
                                                         0.885340       1.241795
                                                         0.330796      -0.137555
                                                         0.105770       0.004863

                          1      11    5fx3              3.630668       4.880331
                                                         3.114659      -5.484066
                                                         1.999981       1.077049
                                                         0.885340      -0.423284
                                                         0.330796      -0.077160
                                                         0.105770      -0.002252
                          1      11    5fx2y             3.630668      10.912751
                                                         3.114659     -12.262744
                                                         1.999981       2.408356
                                                         0.885340      -0.946492
                                                         0.330796      -0.172534
                                                         0.105770      -0.005036
                          1      11    5fx2z             3.630668      10.912751
                                                         3.114659     -12.262744
                                                         1.999981       2.408356
                                                         0.885340      -0.946492
                                                         0.330796      -0.172534
                                                         0.105770      -0.005036
                          1      11    5fxy2             3.630668      10.912751
                                                         3.114659     -12.262744
                                                         1.999981       2.408356
                                                         0.885340      -0.946492
                                                         0.330796      -0.172534
                                                         0.105770      -0.005036
                          1      11    5fxyz             3.630668      18.901440
                                                         3.114659     -21.239695
                                                         1.999981       4.171395
                                                         0.885340      -1.639371
                                                         0.330796      -0.298839
                                                         0.105770      -0.008723
                          1      11    5fxz2             3.630668      10.912751
                                                         3.114659     -12.262744
                                                         1.999981       2.408356
                                                         0.885340      -0.946492
                                                         0.330796      -0.172534
                                                         0.105770      -0.005036
                          1      11    5fy3              3.630668       4.880331
                                                         3.114659      -5.484066
                                                         1.999981       1.077049
                                                         0.885340      -0.423284
                                                         0.330796      -0.077160
                                                         0.105770      -0.002252
                          1      11    5fy2z             3.630668      10.912751
                                                         3.114659     -12.262744
                                                         1.999981       2.408356
                                                         0.885340      -0.946492
                                                         0.330796      -0.172534
                                                         0.105770      -0.005036
                          1      11    5fyz2             3.630668      10.912751
                                                         3.114659     -12.262744
                                                         1.999981       2.408356
                                                         0.885340      -0.946492
                                                         0.330796      -0.172534
                                                         0.105770      -0.005036
                          1      11    5fz3              3.630668       4.880331
                                                         3.114659      -5.484066
                                                         1.999981       1.077049
                                                         0.885340      -0.423284
                                                         0.330796      -0.077160
                                                         0.105770      -0.002252

                          1      12    6fx3              3.630668      -8.682333
                                                         3.114659       9.316357
                                                         1.999981      -1.528940
                                                         0.885340       0.462012
                                                         0.330796      -0.035620
                                                         0.105770      -0.008089
                          1      12    6fx2y             3.630668     -19.414288
                                                         3.114659      20.832008
                                                         1.999981      -3.418814
                                                         0.885340       1.033091
                                                         0.330796      -0.079649
                                                         0.105770      -0.018087
                          1      12    6fx2z             3.630668     -19.414288
                                                         3.114659      20.832008
                                                         1.999981      -3.418814
                                                         0.885340       1.033091
                                                         0.330796      -0.079649
                                                         0.105770      -0.018087
                          1      12    6fxy2             3.630668     -19.414288
                                                         3.114659      20.832008
                                                         1.999981      -3.418814
                                                         0.885340       1.033091
                                                         0.330796      -0.079649
                                                         0.105770      -0.018087
                          1      12    6fxyz             3.630668     -33.626532
                                                         3.114659      36.082097
                                                         1.999981      -5.921560
                                                         0.885340       1.789366
                                                         0.330796      -0.137957
                                                         0.105770      -0.031328
                          1      12    6fxz2             3.630668     -19.414288
                                                         3.114659      20.832008
                                                         1.999981      -3.418814
                                                         0.885340       1.033091
                                                         0.330796      -0.079649
                                                         0.105770      -0.018087
                          1      12    6fy3              3.630668      -8.682333
                                                         3.114659       9.316357
                                                         1.999981      -1.528940
                                                         0.885340       0.462012
                                                         0.330796      -0.035620
                                                         0.105770      -0.008089
                          1      12    6fy2z             3.630668     -19.414288
                                                         3.114659      20.832008
                                                         1.999981      -3.418814
                                                         0.885340       1.033091
                                                         0.330796      -0.079649
                                                         0.105770      -0.018087
                          1      12    6fyz2             3.630668     -19.414288
                                                         3.114659      20.832008
                                                         1.999981      -3.418814
                                                         0.885340       1.033091
                                                         0.330796      -0.079649
                                                         0.105770      -0.018087
                          1      12    6fz3              3.630668      -8.682333
                                                         3.114659       9.316357
                                                         1.999981      -1.528940
                                                         0.885340       0.462012
                                                         0.330796      -0.035620
                                                         0.105770      -0.008089

       Atomic covalent radius [Angstrom]:                                  1.300

       Atomic van der Waals radius [Angstrom]:                             1.750

     GTH Potential information for                                   GTH-PBE-q18

       Description:                       Goedecker-Teter-Hutter pseudopotential
                                           Goedecker et al., PRB 54, 1703 (1996)
                                          Hartwigsen et al., PRB 58, 3641 (1998)
                                                      Krack, TCA 114, 145 (2005)

       Gaussian exponent of the core charge distribution:               2.000000
       Electronic configuration (s p d ...):                           3   6   9

       Parameters of the local part of the GTH pseudopotential:

                          rloc        C1          C2          C3          C4
                        0.500000    8.814323   -0.292509

       Parameters of the non-local part of the GTH pseudopotential:

                   l      r(l)      h(i,j,l)

                   0    0.298002   -5.968385   24.212900  -13.789679
                                   24.212900  -53.687634   35.604799
                                  -13.789679   35.604799  -28.260433
                   1    0.360172   -6.668659    7.170659    0.766904
                                    7.170659   -7.207661   -1.814825
                                    0.766904   -1.814825    1.289806
                   2    0.340532   -8.589905    9.410122
                                    9.410122  -10.670075

  2. Atomic kind: Ni_1                                  Number of atoms:       6

     Orbital Basis Set                                       TZV2P-MOLOPT-SR-GTH

       Number of orbital shell sets:                                           1
       Number of orbital shells:                                              12
       Number of primitive Cartesian functions:                                6
       Number of Cartesian basis functions:                                   51
       Number of spherical basis functions:                                   42
       Norm type:                                                              2

       Normalised Cartesian orbitals:

                        Set   Shell   Orbital            Exponent    Coefficient

                          1       1    2s               10.077428      -1.203272
                                                         5.847736      -0.937025
                                                         2.494033       1.224095
                                                         0.988355       0.578475
                                                         0.344978      -0.113099
                                                         0.099466      -0.037084

                          1       2    3s               10.077428      -0.460918
                                                         5.847736      -0.526191
                                                         2.494033       0.547821
                                                         0.988355      -0.090708
                                                         0.344978       0.140369
                                                         0.099466       0.076728

                          1       3    4s               10.077428       0.070611
                                                         5.847736      -0.818270
                                                         2.494033       0.755798
                                                         0.988355      -0.445003
                                                         0.344978       0.489633
                                                         0.099466      -0.210485

                          1       4    5s               10.077428       1.874373
                                                         5.847736       0.325754
                                                         2.494033      -0.068920
                                                         0.988355       0.286477
                                                         0.344978       0.084288
                                                         0.099466       0.006855

                          1       5    3px              10.077428      -2.937282
                                                         5.847736       2.917266
                                                         2.494033       2.586705
                                                         0.988355       0.564077
                                                         0.344978      -0.034317
                                                         0.099466       0.007224
                          1       5    3py              10.077428      -2.937282
                                                         5.847736       2.917266
                                                         2.494033       2.586705
                                                         0.988355       0.564077
                                                         0.344978      -0.034317
                                                         0.099466       0.007224
                          1       5    3pz              10.077428      -2.937282
                                                         5.847736       2.917266
                                                         2.494033       2.586705
                                                         0.988355       0.564077
                                                         0.344978      -0.034317
                                                         0.099466       0.007224

                          1       6    4px              10.077428       1.020331
                                                         5.847736      -1.019677
                                                         2.494033      -0.073981
                                                         0.988355      -0.203255
                                                         0.344978       0.007646
                                                         0.099466       0.080583
                          1       6    4py              10.077428       1.020331
                                                         5.847736      -1.019677
                                                         2.494033      -0.073981
                                                         0.988355      -0.203255
                                                         0.344978       0.007646
                                                         0.099466       0.080583
                          1       6    4pz              10.077428       1.020331
                                                         5.847736      -1.019677
                                                         2.494033      -0.073981
                                                         0.988355      -0.203255
                                                         0.344978       0.007646
                                                         0.099466       0.080583

                          1       7    5px              10.077428       2.304393
                                                         5.847736      -1.721811
                                                         2.494033       0.012776
                                                         0.988355      -0.148196
                                                         0.344978      -0.339052
                                                         0.099466      -0.000866
                          1       7    5py              10.077428       2.304393
                                                         5.847736      -1.721811
                                                         2.494033       0.012776
                                                         0.988355      -0.148196
                                                         0.344978      -0.339052
                                                         0.099466      -0.000866
                          1       7    5pz              10.077428       2.304393
                                                         5.847736      -1.721811
                                                         2.494033       0.012776
                                                         0.988355      -0.148196
                                                         0.344978      -0.339052
                                                         0.099466      -0.000866

                          1       8    4dx2             10.077428       8.337849
                                                         5.847736       9.302733
                                                         2.494033       2.938471
                                                         0.988355       0.543572
                                                         0.344978       0.058754
                                                         0.099466       0.003146
                          1       8    4dxy             10.077428      14.441578
                                                         5.847736      16.112806
                                                         2.494033       5.089581
                                                         0.988355       0.941494
                                                         0.344978       0.101764
                                                         0.099466       0.005449
                          1       8    4dxz             10.077428      14.441578
                                                         5.847736      16.112806
                                                         2.494033       5.089581
                                                         0.988355       0.941494
                                                         0.344978       0.101764
                                                         0.099466       0.005449
                          1       8    4dy2             10.077428       8.337849
                                                         5.847736       9.302733
                                                         2.494033       2.938471
                                                         0.988355       0.543572
                                                         0.344978       0.058754
                                                         0.099466       0.003146
                          1       8    4dyz             10.077428      14.441578
                                                         5.847736      16.112806
                                                         2.494033       5.089581
                                                         0.988355       0.941494
                                                         0.344978       0.101764
                                                         0.099466       0.005449
                          1       8    4dz2             10.077428       8.337849
                                                         5.847736       9.302733
                                                         2.494033       2.938471
                                                         0.988355       0.543572
                                                         0.344978       0.058754
                                                         0.099466       0.003146

                          1       9    5dx2             10.077428      -4.653022
                                                         5.847736      -5.008865
                                                         2.494033      -1.700612
                                                         0.988355      -0.250612
                                                         0.344978       0.100956
                                                         0.099466       0.020541
                          1       9    5dxy             10.077428      -8.059271
                                                         5.847736      -8.675608
                                                         2.494033      -2.945546
                                                         0.988355      -0.434073
                                                         0.344978       0.174861
                                                         0.099466       0.035579
                          1       9    5dxz             10.077428      -8.059271
                                                         5.847736      -8.675608
                                                         2.494033      -2.945546
                                                         0.988355      -0.434073
                                                         0.344978       0.174861
                                                         0.099466       0.035579
                          1       9    5dy2             10.077428      -4.653022
                                                         5.847736      -5.008865
                                                         2.494033      -1.700612
                                                         0.988355      -0.250612
                                                         0.344978       0.100956
                                                         0.099466       0.020541
                          1       9    5dyz             10.077428      -8.059271
                                                         5.847736      -8.675608
                                                         2.494033      -2.945546
                                                         0.988355      -0.434073
                                                         0.344978       0.174861
                                                         0.099466       0.035579
                          1       9    5dz2             10.077428      -4.653022
                                                         5.847736      -5.008865
                                                         2.494033      -1.700612
                                                         0.988355      -0.250612
                                                         0.344978       0.100956
                                                         0.099466       0.020541

                          1      10    6dx2             10.077428       8.070047
                                                         5.847736       5.922829
                                                         2.494033       4.135603
                                                         0.988355      -0.444413
                                                         0.344978      -0.231916
                                                         0.099466       0.018355
                          1      10    6dxy             10.077428      13.977732
                                                         5.847736      10.258640
                                                         2.494033       7.163075
                                                         0.988355      -0.769746
                                                         0.344978      -0.401690
                                                         0.099466       0.031792
                          1      10    6dxz             10.077428      13.977732
                                                         5.847736      10.258640
                                                         2.494033       7.163075
                                                         0.988355      -0.769746
                                                         0.344978      -0.401690
                                                         0.099466       0.031792
                          1      10    6dy2             10.077428       8.070047
                                                         5.847736       5.922829
                                                         2.494033       4.135603
                                                         0.988355      -0.444413
                                                         0.344978      -0.231916
                                                         0.099466       0.018355
                          1      10    6dyz             10.077428      13.977732
                                                         5.847736      10.258640
                                                         2.494033       7.163075
                                                         0.988355      -0.769746
                                                         0.344978      -0.401690
                                                         0.099466       0.031792
                          1      10    6dz2             10.077428       8.070047
                                                         5.847736       5.922829
                                                         2.494033       4.135603
                                                         0.988355      -0.444413
                                                         0.344978      -0.231916
                                                         0.099466       0.018355

                          1      11    5fx3             10.077428      -3.648786
                                                         5.847736       2.509665
                                                         2.494033      -0.259557
                                                         0.988355       0.293274
                                                         0.344978       0.073682
                                                         0.099466       0.004253
                          1      11    5fx2y            10.077428      -8.158933
                                                         5.847736       5.611781
                                                         2.494033      -0.580386
                                                         0.988355       0.655781
                                                         0.344978       0.164758
                                                         0.099466       0.009509
                          1      11    5fx2z            10.077428      -8.158933
                                                         5.847736       5.611781
                                                         2.494033      -0.580386
                                                         0.988355       0.655781
                                                         0.344978       0.164758
                                                         0.099466       0.009509
                          1      11    5fxy2            10.077428      -8.158933
                                                         5.847736       5.611781
                                                         2.494033      -0.580386
                                                         0.988355       0.655781
                                                         0.344978       0.164758
                                                         0.099466       0.009509
                          1      11    5fxyz            10.077428     -14.131686
                                                         5.847736       9.719889
                                                         2.494033      -1.005259
                                                         0.988355       1.135847
                                                         0.344978       0.285370
                                                         0.099466       0.016471
                          1      11    5fxz2            10.077428      -8.158933
                                                         5.847736       5.611781
                                                         2.494033      -0.580386
                                                         0.988355       0.655781
                                                         0.344978       0.164758
                                                         0.099466       0.009509
                          1      11    5fy3             10.077428      -3.648786
                                                         5.847736       2.509665
                                                         2.494033      -0.259557
                                                         0.988355       0.293274
                                                         0.344978       0.073682
                                                         0.099466       0.004253
                          1      11    5fy2z            10.077428      -8.158933
                                                         5.847736       5.611781
                                                         2.494033      -0.580386
                                                         0.988355       0.655781
                                                         0.344978       0.164758
                                                         0.099466       0.009509
                          1      11    5fyz2            10.077428      -8.158933
                                                         5.847736       5.611781
                                                         2.494033      -0.580386
                                                         0.988355       0.655781
                                                         0.344978       0.164758
                                                         0.099466       0.009509
                          1      11    5fz3             10.077428      -3.648786
                                                         5.847736       2.509665
                                                         2.494033      -0.259557
                                                         0.988355       0.293274
                                                         0.344978       0.073682
                                                         0.099466       0.004253

                          1      12    6fx3             10.077428       2.763843
                                                         5.847736       1.373857
                                                         2.494033       2.401696
                                                         0.988355       0.983912
                                                         0.344978       0.027367
                                                         0.099466      -0.003900
                          1      12    6fx2y            10.077428       6.180140
                                                         5.847736       3.072038
                                                         2.494033       5.370356
                                                         0.988355       2.200094
                                                         0.344978       0.061194
                                                         0.099466      -0.008721
                          1      12    6fx2z            10.077428       6.180140
                                                         5.847736       3.072038
                                                         2.494033       5.370356
                                                         0.988355       2.200094
                                                         0.344978       0.061194
                                                         0.099466      -0.008721
                          1      12    6fxy2            10.077428       6.180140
                                                         5.847736       3.072038
                                                         2.494033       5.370356
                                                         0.988355       2.200094
                                                         0.344978       0.061194
                                                         0.099466      -0.008721
                          1      12    6fxyz            10.077428      10.704316
                                                         5.847736       5.320925
                                                         2.494033       9.301729
                                                         0.988355       3.810675
                                                         0.344978       0.105992
                                                         0.099466      -0.015105
                          1      12    6fxz2            10.077428       6.180140
                                                         5.847736       3.072038
                                                         2.494033       5.370356
                                                         0.988355       2.200094
                                                         0.344978       0.061194
                                                         0.099466      -0.008721
                          1      12    6fy3             10.077428       2.763843
                                                         5.847736       1.373857
                                                         2.494033       2.401696
                                                         0.988355       0.983912
                                                         0.344978       0.027367
                                                         0.099466      -0.003900
                          1      12    6fy2z            10.077428       6.180140
                                                         5.847736       3.072038
                                                         2.494033       5.370356
                                                         0.988355       2.200094
                                                         0.344978       0.061194
                                                         0.099466      -0.008721
                          1      12    6fyz2            10.077428       6.180140
                                                         5.847736       3.072038
                                                         2.494033       5.370356
                                                         0.988355       2.200094
                                                         0.344978       0.061194
                                                         0.099466      -0.008721
                          1      12    6fz3             10.077428       2.763843
                                                         5.847736       1.373857
                                                         2.494033       2.401696
                                                         0.988355       0.983912
                                                         0.344978       0.027367
                                                         0.099466      -0.003900

       Atomic covalent radius [Angstrom]:                                  1.150

       Atomic van der Waals radius [Angstrom]:                             1.630

     GTH Potential information for                                   GTH-PBE-q18

       Description:                       Goedecker-Teter-Hutter pseudopotential
                                           Goedecker et al., PRB 54, 1703 (1996)
                                          Hartwigsen et al., PRB 58, 3641 (1998)
                                                      Krack, TCA 114, 145 (2005)

       Gaussian exponent of the core charge distribution:               4.081633
       Electronic configuration (s p d ...):                           4   6   8

       Parameters of the local part of the GTH pseudopotential:

                          rloc        C1          C2          C3          C4
                        0.350000    2.102166    0.648484

       Parameters of the non-local part of the GTH pseudopotential:

                   l      r(l)      h(i,j,l)

                   0    0.261295    0.622658    9.970227
                                    9.970227  -12.871507
                   1    0.224253  -11.142708   12.429566
                                   12.429566  -14.706861
                   2    0.215348  -12.628146

  3. Atomic kind: Pt_2                                  Number of atoms:       6

     Orbital Basis Set                                       TZV2P-MOLOPT-SR-GTH

       Number of orbital shell sets:                                           1
       Number of orbital shells:                                              12
       Number of primitive Cartesian functions:                                6
       Number of Cartesian basis functions:                                   51
       Number of spherical basis functions:                                   42
       Norm type:                                                              2

       Normalised Cartesian orbitals:

                        Set   Shell   Orbital            Exponent    Coefficient

                          1       1    2s                3.630668      -0.847440
                                                         3.114659       1.689294
                                                         1.999981      -0.894971
                                                         0.885340      -0.073397
                                                         0.330796      -0.102641
                                                         0.105770      -0.062718

                          1       2    3s                3.630668       0.243351
                                                         3.114659       0.525701
                                                         1.999981      -0.353221
                                                         0.885340      -0.194501
                                                         0.330796       0.133188
                                                         0.105770       0.103550

                          1       3    4s                3.630668      -1.677553
                                                         3.114659       0.139051
                                                         1.999981       0.229740
                                                         0.885340       0.871789
                                                         0.330796      -0.602921
                                                         0.105770       0.232545

                          1       4    5s                3.630668      -0.062404
                                                         3.114659       0.351232
                                                         1.999981       0.123855
                                                         0.885340       0.321458
                                                         0.330796       0.106151
                                                         0.105770      -0.005044

                          1       5    3px               3.630668       3.424246
                                                         3.114659      -1.519057
                                                         1.999981      -1.430196
                                                         0.885340      -0.729849
                                                         0.330796      -0.098096
                                                         0.105770       0.013096
                          1       5    3py               3.630668       3.424246
                                                         3.114659      -1.519057
                                                         1.999981      -1.430196
                                                         0.885340      -0.729849
                                                         0.330796      -0.098096
                                                         0.105770       0.013096
                          1       5    3pz               3.630668       3.424246
                                                         3.114659      -1.519057
                                                         1.999981      -1.430196
                                                         0.885340      -0.729849
                                                         0.330796      -0.098096
                                                         0.105770       0.013096

                          1       6    4px               3.630668      -0.958884
                                                         3.114659       0.556877
                                                         1.999981       0.077752
                                                         0.885340      -0.184445
                                                         0.330796       0.139403
                                                         0.105770       0.065163
                          1       6    4py               3.630668      -0.958884
                                                         3.114659       0.556877
                                                         1.999981       0.077752
                                                         0.885340      -0.184445
                                                         0.330796       0.139403
                                                         0.105770       0.065163
                          1       6    4pz               3.630668      -0.958884
                                                         3.114659       0.556877
                                                         1.999981       0.077752
                                                         0.885340      -0.184445
                                                         0.330796       0.139403
                                                         0.105770       0.065163

                          1       7    5px               3.630668       1.363347
                                                         3.114659      -1.970560
                                                         1.999981       1.710611
                                                         0.885340       1.217896
                                                         0.330796      -0.597455
                                                         0.105770       0.096067
                          1       7    5py               3.630668       1.363347
                                                         3.114659      -1.970560
                                                         1.999981       1.710611
                                                         0.885340       1.217896
                                                         0.330796      -0.597455
                                                         0.105770       0.096067
                          1       7    5pz               3.630668       1.363347
                                                         3.114659      -1.970560
                                                         1.999981       1.710611
                                                         0.885340       1.217896
                                                         0.330796      -0.597455
                                                         0.105770       0.096067

                          1       8    4dx2              3.630668      -5.982573
                                                         3.114659       4.610182
                                                         1.999981       0.721675
                                                         0.885340       0.676993
                                                         0.330796       0.105602
                                                         0.105770       0.001692
                          1       8    4dxy              3.630668     -10.362121
[...]
    Total number of valence electrons                                      18.00
    Total number of electrons                                              28.00
    Multiplicity                                                         doublet
    Alpha Electrons
    S   [  1.00  1.00] 1.00  1.00
    P   [  3.00] 3.00
    D      4.35
    Beta Electrons
    S   [  1.00  1.00] 1.00  1.00
    P   [  3.00] 3.00
    D      3.65


 *******************************************************************************
                  Iteration          Convergence                     Energy [au]
 *******************************************************************************
                          1         5.58429                    -163.648279774565
                          2         12.3115                    -140.658903108631
                          3        0.309293                    -168.554322477249
                          4        0.659297                    -168.594600361759
                          5        0.372057                    -168.610905566205
                          6        0.551983E-01                -168.617635874686
                          7        0.570475E-01                -168.617915105559
                          8        0.104974                    -168.617669049620
                          9        0.303787E-01                -168.618068503888
                         10        0.278627E-01                -168.618111603746
                         11        0.371358E-01                -168.618132374703
                         12        0.247252E-01                -168.618156003756
                         13        0.327023E-01                -168.618129752394
                         14        0.289383E-01                -168.618144445363
                         15        0.287545E-01                -168.618145131143
                         16        0.229729E-01                -168.618161857637
                         17        0.188516E-01                -168.618190253000
                         18        0.181044E-01                -168.618190559339
                         19        0.177048E-01                -168.618191127999
                         20        0.176923E-01                -168.618191206724
                         21        0.175972E-01                -168.618191382455
                         22        0.846344E-02                -168.618201748701
                         23        0.869644E-02                -168.618204744583
                         24        0.863909E-02                -168.618204759484
                         25        0.860393E-02                -168.618204789589
                         26        0.857856E-02                -168.618204815264
                         27        0.846294E-02                -168.618204926352
                         28        0.449969E-02                -168.618208834169
                         29        0.534071E-02                -168.618208922941
                         30        0.533667E-02                -168.618208922652
                         31        0.533325E-02                -168.618208923614
                         32        0.532997E-02                -168.618208924914
                         33        0.521500E-02                -168.618208976855
                         34        0.249315E-02                -168.618210152461
                         35        0.254856E-02                -168.618210152236
                         36        0.254982E-02                -168.618210152006
                         37        0.255044E-02                -168.618210151841
                         38        0.255149E-02                -168.618210151539
                         39        0.234538E-02                -168.618210207155
                         40        0.147009E-02                -168.618210513480
                         41        0.157718E-02                -168.618210515446
                         42        0.157730E-02                -168.618210515480
                         43        0.157677E-02                -168.618210515561
                         44        0.157454E-02                -168.618210515860
                         45        0.163389E-02                -168.618210508066
                         46        0.100529E-02                -168.618210610859
                         47        0.754906E-03                -168.618210622819
                         48        0.755279E-03                -168.618210622804
                         49        0.756062E-03                -168.618210622756
                         50        0.758530E-03                -168.618210622577
 No convergence within maximum number of iterations 

 Energy components [Hartree]           Total Energy ::         -168.618210622577
                                        Band Energy ::          -26.310967272713
                                     Kinetic Energy ::           97.567964345363
                                   Potential Energy ::         -266.186174967940
                                      Virial (-V/T) ::            2.728212859148
                                        Core Energy ::         -299.815456767354
                                          XC Energy ::          -16.254542784383
                                     Coulomb Energy ::          147.451788929160
                       Total Pseudopotential Energy ::         -397.469489371066
                       Local Pseudopotential Energy ::         -363.027734426498
                    Nonlocal Pseudopotential Energy ::          -34.441754944568
                                        Confinement ::            0.860682583484

 Orbital energies  State     Spin  L     Occupation   Energy[a.u.]    Energy[eV]

                       1    alpha  0          1.000      -4.155207   -113.068939
                       2    alpha  0          1.000      -0.179857     -4.894146
                       1     beta  0          1.000      -4.121877   -112.161976
                       2     beta  0          1.000      -0.174993     -4.761802

                       1    alpha  1          3.000      -2.561788    -69.709791
                       1     beta  1          3.000      -2.529409    -68.828730

                       1    alpha  2          4.350      -0.313132     -8.520753
                       1     beta  2          3.650      -0.285841     -7.778117


 Total Electron Density at R=0:                                         0.016088

 Guess for atomic kind: Pt_5

 Electronic structure
    Total number of core electrons                                         60.00
    Total number of valence electrons                                      18.00
    Total number of electrons                                              78.00
    Multiplicity                                                         singlet
    Alpha Electrons
    S   [  1.00  1.00  1.00  1.00] 1.00  0.50
    P   [  3.00  3.00  3.00] 3.00
    D   [  5.00  5.00] 4.53
    F   [  7.00]
    Beta Electrons
    S   [  1.00  1.00  1.00  1.00] 1.00  0.50
    P   [  3.00  3.00  3.00] 3.00
    D   [  5.00  5.00] 4.47
    F   [  7.00]


 *******************************************************************************
                  Iteration          Convergence                     Energy [au]
 *******************************************************************************
                          1         5.49050                    -112.068159670532
                          2         8.33605                    -105.353197326980
                          3         1.34157                    -119.444775536321
                          4        0.224214                    -119.636033118541
                          5        0.990437E-02                -119.639674501034
                          6        0.368778E-02                -119.639678425825
                          7        0.392529E-02                -119.639679703465
                          8        0.174834E-01                -119.639664040591
                          9        0.344251E-02                -119.639680174340
                         10        0.277945E-02                -119.639680524838
                         11        0.294104E-02                -119.639680520341
                         12        0.270993E-02                -119.639680606266
                         13        0.268062E-02                -119.639680624639
                         14        0.176249E-02                -119.639681022069
                         15        0.185819E-02                -119.639680979426
                         16        0.165542E-02                -119.639681011972
                         17        0.160041E-02                -119.639681020045
                         18        0.156186E-02                -119.639681025823
                         19        0.149154E-02                -119.639681031115
                         20        0.569768E-03                -119.639681150426
                         21        0.732414E-03                -119.639681159485
                         22        0.751864E-03                -119.639681158318
                         23        0.768921E-03                -119.639681156855
                         24        0.809951E-03                -119.639681153156
                         25        0.644114E-03                -119.639681166267
                         26        0.356441E-03                -119.639681189692
                         27        0.367067E-03                -119.639681189771
                         28        0.368435E-03                -119.639681189727
                         29        0.370558E-03                -119.639681189642
                         30        0.376595E-03                -119.639681189392
                         31        0.298904E-03                -119.639681193733
                         32        0.177557E-03                -119.639681197185
                         33        0.177423E-03                -119.639681197189
                         34        0.177380E-03                -119.639681197191
                         35        0.177263E-03                -119.639681197194
                         36        0.175676E-03                -119.639681197226
                         37        0.145310E-03                -119.639681198154
                         38        0.873503E-04                -119.639681198949
                         39        0.873043E-04                -119.639681198949
                         40        0.872747E-04                -119.639681198950
                         41        0.872801E-04                -119.639681198949
                         42        0.884349E-04                -119.639681198938
                         43        0.711988E-04                -119.639681199168
                         44        0.419725E-04                -119.639681199368
                         45        0.419781E-04                -119.639681199368
                         46        0.419743E-04                -119.639681199368
                         47        0.419507E-04                -119.639681199368
                         48        0.415441E-04                -119.639681199370
                         49        0.343704E-04                -119.639681199422
                         50        0.206700E-04                -119.639681199466
 No convergence within maximum number of iterations 

 Energy components [Hartree]           Total Energy ::         -119.639681199466
                                        Band Energy ::          -21.634512938768
                                     Kinetic Energy ::           38.697518364823
                                   Potential Energy ::         -158.337199564290
                                      Virial (-V/T) ::            4.091662883174
                                        Core Energy ::         -209.822262810502
                                          XC Energy ::          -11.386949588199
                                     Coulomb Energy ::          101.569531199235
                       Total Pseudopotential Energy ::         -248.635352797081
                       Local Pseudopotential Energy ::         -235.739586669549
                    Nonlocal Pseudopotential Energy ::          -12.895766127532
                                        Confinement ::            1.155716217556

 Orbital energies  State     Spin  L     Occupation   Energy[a.u.]    Energy[eV]

                       1    alpha  0          1.000      -3.693922   -100.516731
                       2    alpha  0          0.500      -0.185571     -5.049652
                       1     beta  0          1.000      -3.692880   -100.488365
                       2     beta  0          0.500      -0.185031     -5.034957

                       1    alpha  1          3.000      -2.040404    -55.522206
                       1     beta  1          3.000      -2.039262    -55.491134

                       1    alpha  2          4.525      -0.203131     -5.527477
                       1     beta  2          4.475      -0.202066     -5.498499


 Total Electron Density at R=0:                                         0.004795

 Spin 1
 Re-scaling the density matrix to get the right number of electrons for spin 1
                  # Electrons              Trace(P)               Scaling factor
                        545.550             545.550                        1.000

 Spin 2
 Re-scaling the density matrix to get the right number of electrons for spin 2
                  # Electrons              Trace(P)               Scaling factor
                        534.450             534.450                        1.000


 SCF WAVEFUNCTION OPTIMIZATION

  Step     Update method      Time    Convergence         Total energy    Change
  ------------------------------------------------------------------------------
     1 NoMix/Diag. 0.40E-01   13.0     0.90734460     -7956.2884616547 -7.96E+03
     2 Broy./Diag. 0.40E-01   15.7     0.12074947     -7939.8942099316  1.64E+01
     3 Broy./Diag. 0.40E-01   15.7     0.17588633     -7961.8489644972 -2.20E+01
     4 Broy./Diag. 0.40E-01   15.7     0.27968340     -7972.4532406825 -1.06E+01
     5 Broy./Diag. 0.40E-01   15.7     0.22708409     -8030.3103442249 -5.79E+01
     6 Broy./Diag. 0.40E-01   15.7     0.15518477     -7992.4447325408  3.79E+01
     7 Broy./Diag. 0.40E-01   15.7     0.17616345     -7970.4334700532  2.20E+01
     8 Broy./Diag. 0.40E-01   15.7     0.09688035     -7981.4230615367 -1.10E+01
     9 Broy./Diag. 0.40E-01   15.8     0.04636702     -7955.9736300299  2.54E+01
    10 Broy./Diag. 0.40E-01   15.7     0.07655963     -7940.6599465589  1.53E+01
    11 Broy./Diag. 0.40E-01   15.9     0.06114597     -7936.1851011424  4.47E+00
    12 Broy./Diag. 0.40E-01   15.8     0.02810084     -7931.4612441352  4.72E+00
    13 Broy./Diag. 0.40E-01   15.7     0.04237193     -7930.6422960970  8.19E-01
    14 Broy./Diag. 0.40E-01   15.8     0.01810441     -7927.6124659598  3.03E+00
    15 Broy./Diag. 0.40E-01   15.8     0.01777171     -7929.3588969496 -1.75E+00
    16 Broy./Diag. 0.40E-01   15.8     0.01444007     -7934.8288937695 -5.47E+00
    17 Broy./Diag. 0.40E-01   15.8     0.00700297     -7935.2009581883 -3.72E-01
    18 Broy./Diag. 0.40E-01   15.8     0.01215314     -7937.0540396917 -1.85E+00
    19 Broy./Diag. 0.40E-01   15.8     0.01278851     -7936.2646000908  7.89E-01
    20 Broy./Diag. 0.40E-01   15.8     0.00666877     -7939.5949602626 -3.33E+00
    21 Broy./Diag. 0.40E-01   15.8     0.00417630     -7940.1716499479 -5.77E-01
    22 Broy./Diag. 0.40E-01   15.8     0.00455877     -7940.1467551491  2.49E-02
    23 Broy./Diag. 0.40E-01   15.8     0.00640732     -7940.3203524863 -1.74E-01
    24 Broy./Diag. 0.40E-01   15.8     0.00289068     -7941.0093922821 -6.89E-01
    25 Broy./Diag. 0.40E-01   15.8     0.00098844     -7941.0776143320 -6.82E-02
    26 Broy./Diag. 0.40E-01   15.8     0.00272486     -7941.1076022323 -3.00E-02
    27 Broy./Diag. 0.40E-01   15.8     0.00146846     -7940.8581404675  2.49E-01
    28 Broy./Diag. 0.40E-01   15.8     0.00157419     -7940.8854353444 -2.73E-02
    29 Broy./Diag. 0.40E-01   15.8     0.00099481     -7940.9728501400 -8.74E-02
    30 Broy./Diag. 0.40E-01   15.8     0.00611260     -7940.9321030139  4.07E-02
    31 Broy./Diag. 0.40E-01   15.8     0.00249825     -7941.2216687049 -2.90E-01
    32 Broy./Diag. 0.40E-01   15.8     0.00230879     -7941.3648888519 -1.43E-01
    33 Broy./Diag. 0.40E-01   15.8     0.00051360     -7941.2200067039  1.45E-01
    34 Broy./Diag. 0.40E-01   15.8     0.00119438     -7941.2545048546 -3.45E-02
    35 Broy./Diag. 0.40E-01   15.8     0.00397576     -7941.1616682137  9.28E-02
    36 Broy./Diag. 0.40E-01   15.8     0.01465117     -7940.9304391428  2.31E-01
    37 Broy./Diag. 0.40E-01   15.8     0.01454089     -7940.1434219604  7.87E-01
    38 Broy./Diag. 0.40E-01   15.8     0.00124163     -7940.9606409797 -8.17E-01
    39 Broy./Diag. 0.40E-01   15.8     0.00667701     -7941.0091479060 -4.85E-02
    40 Broy./Diag. 0.40E-01   15.8     0.00602229     -7940.7292375713  2.80E-01
    41 Broy./Diag. 0.40E-01   15.8     0.00626826     -7940.4452292138  2.84E-01
    42 Broy./Diag. 0.40E-01   15.8     0.00149588     -7940.6607538236 -2.16E-01
    43 Broy./Diag. 0.40E-01   15.8     0.01375348     -7940.6007864031  6.00E-02
    44 Broy./Diag. 0.40E-01   15.8     0.00526897     -7940.0951921282  5.06E-01
    45 Broy./Diag. 0.40E-01   15.8     0.00147657     -7940.2357836248 -1.41E-01
    46 Broy./Diag. 0.40E-01   15.8     0.00452203     -7940.2024484730  3.33E-02
    47 Broy./Diag. 0.40E-01   15.8     0.00494436     -7940.2589282051 -5.65E-02
    48 Broy./Diag. 0.40E-01   15.8     0.01452992     -7940.0119993322  2.47E-01
    49 Broy./Diag. 0.40E-01   15.8     0.00419545     -7939.3653938163  6.47E-01
    50 Broy./Diag. 0.40E-01   15.8     0.01044445     -7939.2404478350  1.25E-01
    51 Broy./Diag. 0.40E-01   15.8     0.00954208     -7938.8903486749  3.50E-01
    52 Broy./Diag. 0.40E-01   15.8     0.00527509     -7938.7154917433  1.75E-01
    53 Broy./Diag. 0.40E-01   15.8     0.00324664     -7938.5888052632  1.27E-01
    54 Broy./Diag. 0.40E-01   15.8     0.00508876     -7938.7107965318 -1.22E-01
    55 Broy./Diag. 0.40E-01   15.8     0.00282892     -7938.5996100611  1.11E-01
    56 Broy./Diag. 0.40E-01   15.8     0.00338227     -7938.6526369371 -5.30E-02
    57 Broy./Diag. 0.40E-01   15.8     0.00216540     -7938.6381538137  1.45E-02
    58 Broy./Diag. 0.40E-01   15.8     0.00090703     -7938.5962008295  4.20E-02
    59 Broy./Diag. 0.40E-01   15.8     0.00244057     -7938.6026884549 -6.49E-03
    60 Broy./Diag. 0.40E-01   15.8     0.00456300     -7938.6661780950 -6.35E-02
    61 Broy./Diag. 0.40E-01   15.8     0.00299357     -7938.7646756303 -9.85E-02
    62 Broy./Diag. 0.40E-01   15.8     0.00316329     -7938.8135327057 -4.89E-02
    63 Broy./Diag. 0.40E-01   15.9     0.00156420     -7938.8051792429  8.35E-03
    64 Broy./Diag. 0.40E-01   15.8     0.00422509     -7938.7823891512  2.28E-02
    65 Broy./Diag. 0.40E-01   15.9     0.00230849     -7938.6956485158  8.67E-02
    66 Broy./Diag. 0.40E-01   15.8     0.00254258     -7938.7531889688 -5.75E-02
    67 Broy./Diag. 0.40E-01   15.8     0.00330912     -7939.0136562384 -2.60E-01
    68 Broy./Diag. 0.40E-01   15.8     0.00207471     -7939.2494205900 -2.36E-01
    69 Broy./Diag. 0.40E-01   15.8     0.00349737     -7939.2869975052 -3.76E-02
    70 Broy./Diag. 0.40E-01   15.8     0.01057102     -7939.3398915451 -5.29E-02
    71 Broy./Diag. 0.40E-01   15.8     0.00817833     -7939.4427230226 -1.03E-01
    72 Broy./Diag. 0.40E-01   15.8     0.00315758     -7939.2469087857  1.96E-01
    73 Broy./Diag. 0.40E-01   15.8     0.00331313     -7939.2253672156  2.15E-02
