 DBCSR| CPU Multiplication driver                                           XSMM (U)
 DBCSR| Multrec recursion limit                                              512 (U)
 DBCSR| Multiplication stack size                                           1000 (D)
 DBCSR| Maximum elements for images                                    UNLIMITED (U)
 DBCSR| Multiplicative factor virtual images                                   1 (U)
 DBCSR| Use multiplication densification                                       T (D)
 DBCSR| Multiplication size stacks                                             3 (U)
 DBCSR| Use memory pool for CPU allocation                                     F (U)
 DBCSR| Number of 3D layers                                               SINGLE (U)
 DBCSR| Use MPI memory allocation                                              F (U)
 DBCSR| Use RMA algorithm                                                      F (U)
 DBCSR| Use Communication thread                                               T (U)
 DBCSR| Communication thread load                                             87 (D)
 DBCSR| MPI: My process id                                                     0
 DBCSR| MPI: Number of processes                                             128
 DBCSR| OMP: Current number of threads                                         1
 DBCSR| OMP: Max number of threads                                             1
 DBCSR| Split modifier for TAS multiplication algorithm                  1.0E+00 (U)


  **** **** ******  **  PROGRAM STARTED AT               2023-02-14 14:23:43.015
 ***** ** ***  *** **   PROGRAM STARTED ON                             nid002455
 **    ****   ******    PROGRAM STARTED BY                                cahart
 ***** **    ** ** **   PROGRAM PROCESS ID                                 45756
  **** **  *******  **  PROGRAM STARTED IN /mnt/lustre/a2fs-work2/work/e05/e05/c
                                           ahart/postdoc/masters/ni/archer2/slab
                                           /optimise/alpha-beta/scf_5e-4_mos-100
                                           0_temp-2000_spin-0.7-0.5_periodic-xyz
                                           /search/8.0E-02_1.0E-2

 CP2K| version string:                 CP2K version 2023.1 (Development Version)
 CP2K| source code revision number:                                  git:964cd58
 CP2K| cp2kflags: omp libint fftw3 libxc elpa parallel scalapack xsmm plumed2 mk
 CP2K|            l
 CP2K| is freely available from                            https://www.cp2k.org/
 CP2K| Program compiled at                          Mon 13 Feb 17:05:14 GMT 2023
 CP2K| Program compiled on                                                  ln01
 CP2K| Program compiled for                                              ARCHER2
 CP2K| Data directory path    /work/e05/e05/cahart/cp2k/cp2k-2023.1/cp2k-2023.1-
 CP2K| Input file name                                                  cp2k.inp

 GLOBAL| Force Environment number                                              1
 GLOBAL| Basis set file name                                        BASIS_MOLOPT
 GLOBAL| Potential file name                                      GTH_POTENTIALS
 GLOBAL| MM Potential file name                                     MM_POTENTIAL
 GLOBAL| Coordinate file name                                      __STD_INPUT__
 GLOBAL| Method name                                                        CP2K
 GLOBAL| Project name                                                    Ni_bulk
 GLOBAL| Run type                                                         ENERGY
 GLOBAL| FFT library                                                       FFTW3
 GLOBAL| Diagonalization library                                            ELPA
 GLOBAL| DGEMM library                                                      BLAS
 GLOBAL| Minimum number of eigenvectors for ELPA usage                        16
 GLOBAL| Orthonormality check for eigenvectors                          DISABLED
 GLOBAL| Matrix multiplication library                                 ScaLAPACK
 GLOBAL| All-to-all communication in single precision                          F
 GLOBAL| FFTs using library dependent lengths                                  F
 GLOBAL| Grid backend                                                       AUTO
 GLOBAL| Global print level                                               MEDIUM
 GLOBAL| MPI I/O enabled                                                       T
 GLOBAL| Total number of message passing processes                           128
 GLOBAL| Number of threads for this process                                    1
 GLOBAL| This output is from process                                           0
 GLOBAL| Stack size for threads created by OpenMP (OMP_STACKSIZE)        default
 GLOBAL| CPU model name                          AMD EPYC 7742 64-Core Processor
 GLOBAL| CPUID                                                              1002

 MEMORY| system memory details [Kb]
 MEMORY|                        rank 0           min           max       average
 MEMORY| MemTotal            263528084     263528084     263528084     263528084
 MEMORY| MemFree             239017912     239017660     239017912     239017780
 MEMORY| Buffers                 25976         25976         25976         25976
 MEMORY| Cached                 685900        685900        686136        686020
 MEMORY| Slab                  1567412       1567412       1567432       1567422
 MEMORY| SReclaimable           101976        101976        101976        101976
 MEMORY| MemLikelyFree       239831764     239831696     239831764     239831752


 *** Fundamental physical constants (SI units) ***

 *** Literature: B. J. Mohr and B. N. Taylor,
 ***             CODATA recommended values of the fundamental physical
 ***             constants: 2006, Web Version 5.1
 ***             http://physics.nist.gov/constants

 Speed of light in vacuum [m/s]                             2.99792458000000E+08
 Magnetic constant or permeability of vacuum [N/A**2]       1.25663706143592E-06
 Electric constant or permittivity of vacuum [F/m]          8.85418781762039E-12
 Planck constant (h) [J*s]                                  6.62606896000000E-34
 Planck constant (h-bar) [J*s]                              1.05457162825177E-34
 Elementary charge [C]                                      1.60217648700000E-19
 Electron mass [kg]                                         9.10938215000000E-31
 Electron g factor [ ]                                     -2.00231930436220E+00
 Proton mass [kg]                                           1.67262163700000E-27
 Fine-structure constant                                    7.29735253760000E-03
 Rydberg constant [1/m]                                     1.09737315685270E+07
 Avogadro constant [1/mol]                                  6.02214179000000E+23
 Boltzmann constant [J/K]                                   1.38065040000000E-23
 Atomic mass unit [kg]                                      1.66053878200000E-27
 Bohr radius [m]                                            5.29177208590000E-11

 *** Conversion factors ***

 [u] -> [a.u.]                                              1.82288848426455E+03
 [Angstrom] -> [Bohr] = [a.u.]                              1.88972613288564E+00
 [a.u.] = [Bohr] -> [Angstrom]                              5.29177208590000E-01
 [a.u.] -> [s]                                              2.41888432650478E-17
 [a.u.] -> [fs]                                             2.41888432650478E-02
 [a.u.] -> [J]                                              4.35974393937059E-18
 [a.u.] -> [N]                                              8.23872205491840E-08
 [a.u.] -> [K]                                              3.15774647902944E+05
 [a.u.] -> [kJ/mol]                                         2.62549961709828E+03
 [a.u.] -> [kcal/mol]                                       6.27509468713739E+02
 [a.u.] -> [Pa]                                             2.94210107994716E+13
 [a.u.] -> [bar]                                            2.94210107994716E+08
 [a.u.] -> [atm]                                            2.90362800883016E+08
 [a.u.] -> [eV]                                             2.72113838565563E+01
 [a.u.] -> [Hz]                                             6.57968392072181E+15
 [a.u.] -> [1/cm] (wave numbers)                            2.19474631370540E+05
 [a.u./Bohr**2] -> [1/cm]                                   5.14048714338585E+03
 

 CELL_TOP| Volume [angstrom^3]:                                       983.249569
 CELL_TOP| Vector a [angstrom     7.012     0.000     0.000   |a| =     7.011596
 CELL_TOP| Vector b [angstrom     0.000     7.012     0.000   |b| =     7.011596
 CELL_TOP| Vector c [angstrom     0.000     0.000    20.000   |c| =    20.000000
 CELL_TOP| Angle (b,c), alpha [degree]:                                90.000000
 CELL_TOP| Angle (a,c), beta  [degree]:                                90.000000
 CELL_TOP| Angle (a,b), gamma [degree]:                                90.000000
 CELL_TOP| Numerically orthorhombic:                                         YES
 CELL_TOP| Periodicity                                                       XYZ

 GENERATE|  Preliminary Number of Bonds generated:                             0
 GENERATE|  Achieved consistency in connectivity generation.

 CELL| Volume [angstrom^3]:                                           983.249569
 CELL| Vector a [angstrom]:       7.012     0.000     0.000   |a| =     7.011596
 CELL| Vector b [angstrom]:       0.000     7.012     0.000   |b| =     7.011596
 CELL| Vector c [angstrom]:       0.000     0.000    20.000   |c| =    20.000000
 CELL| Angle (b,c), alpha [degree]:                                    90.000000
 CELL| Angle (a,c), beta  [degree]:                                    90.000000
 CELL| Angle (a,b), gamma [degree]:                                    90.000000
 CELL| Numerically orthorhombic:                                             YES
 CELL| Periodicity                                                           XYZ

 CELL_REF| Volume [angstrom^3]:                                       983.249569
 CELL_REF| Vector a [angstrom     7.012     0.000     0.000   |a| =     7.011596
 CELL_REF| Vector b [angstrom     0.000     7.012     0.000   |b| =     7.011596
 CELL_REF| Vector c [angstrom     0.000     0.000    20.000   |c| =    20.000000
 CELL_REF| Angle (b,c), alpha [degree]:                                90.000000
 CELL_REF| Angle (a,c), beta  [degree]:                                90.000000
 CELL_REF| Angle (a,b), gamma [degree]:                                90.000000
 CELL_REF| Numerically orthorhombic:                                         YES
 CELL_REF| Periodicity                                                       XYZ

 *** WARNING in cryssym.F:165 :: Symmetry library SPGLIB not available ***


 *******************************************************************************
                                    Kpoints
 *******************************************************************************
 BRILLOUIN| K-point scheme                                        Monkhorst-Pack
 BRILLOUIN| K-Point grid                                             4    4    1
 BRILLOUIN| Accuracy in Symmetry determination                      0.100000E-05
 BRILLOUIN| K-Point point group symmetrization                               OFF
 BRILLOUIN| Wavefunction type                                            COMPLEX
 BRILLOUIN| List of Kpoints [2 Pi/Bohr]                                        8
 BRILLOUIN| Number           Weight            X              Y              Z
 BRILLOUIN|     1           0.12500       -0.37500       -0.37500        0.00000
 BRILLOUIN|     2           0.12500       -0.37500       -0.12500        0.00000
 BRILLOUIN|     3           0.12500       -0.37500        0.12500        0.00000
 BRILLOUIN|     4           0.12500       -0.37500        0.37500        0.00000
 BRILLOUIN|     5           0.12500       -0.12500       -0.37500        0.00000
 BRILLOUIN|     6           0.12500       -0.12500       -0.12500        0.00000
 BRILLOUIN|     7           0.12500       -0.12500        0.12500        0.00000
 BRILLOUIN|     8           0.12500       -0.12500        0.37500        0.00000
 *******************************************************************************

 *******************************************************************************
 *******************************************************************************
 **                                                                           **
 **     #####                         ##              ##                      **
 **    ##   ##            ##          ##              ##                      **
 **   ##     ##                       ##            ######                    **
 **   ##     ##  ##   ##  ##   #####  ##  ##   ####   ##    #####    #####    **
 **   ##     ##  ##   ##  ##  ##      ## ##   ##      ##   ##   ##  ##   ##   **
 **   ##  ## ##  ##   ##  ##  ##      ####     ###    ##   ######   ######    **
 **    ##  ###   ##   ##  ##  ##      ## ##      ##   ##   ##       ##        **
 **     #######   #####   ##   #####  ##  ##  ####    ##    #####   ##        **
 **           ##                                                    ##        **
 **                                                                           **
 **                                                ... make the atoms dance   **
 **                                                                           **
 **            Copyright (C) by CP2K developers group (2000-2023)             **
 **                      J. Chem. Phys. 152, 194103 (2020)                    **
 **                                                                           **
 *******************************************************************************

 *** WARNING in qs_environment.F:1456 :: Number of electrons will be ***
 *** overwritten by NELEC_ALPHA and NELEC_BETA, multiplicity will be ***
 *** ignored.                                                        ***

 Number of electrons should be                                               576
 Sum of NELEC_ALPHA and NELEC_BETA is                                    576.000

 *** WARNING in qs_environment.F:1488 :: NELEC_ALPHA is not an integer, ***
 *** many features will not be supported.                               ***


 *** WARNING in qs_environment.F:1500 :: NELEC_BETA is not an integer, ***
 *** many features will not be supported.                              ***


 *** WARNING in qs_environment.F:1532 :: More ADDED_MOs requested for beta ***
 *** spin than available.                                                  ***


 *** WARNING in qs_environment.F:1548 :: More added MOs requested than     ***
 *** available. The full set of unoccupied MOs will be used. Use           ***
 *** 'ADDED_MOS -1' to always use all available MOs and to get rid of this ***
 *** warning.                                                              ***


 DFT| Spin unrestricted (spin-polarized) Kohn-Sham calculation               UKS
 DFT| Multiplicity                                                             1
 DFT| Number of spin states                                                    2
 DFT| Charge                                                                   0
 DFT| Self-interaction correction (SIC)                                       NO
 DFT| Cutoffs: density                                              1.000000E-10
 DFT|          gradient                                             1.000000E-10
 DFT|          tau                                                  1.000000E-10
 DFT|          cutoff_smoothing_range                               0.000000E+00
 DFT| XC density smoothing                                                  NONE
 DFT| XC derivatives                                                          PW

 FUNCTIONAL| PBE:
 FUNCTIONAL| J.P.Perdew, K.Burke, M.Ernzerhof, Phys. Rev. Letter, vol. 77, n 18,
 FUNCTIONAL|  pp. 3865-3868, (1996){spin polarized}                             

 vdW POTENTIAL|                                                   Pair Potential
 vdW POTENTIAL|          DFT-D3 (Version 3.1)
 vdW POTENTIAL|          Potential Form: S. Grimme et al, JCP 132: 154104 (2010)
 vdW POTENTIAL|          Zero Damping
 vdW POTENTIAL|          Cutoff Radius [Bohr]:                             20.00
 vdW POTENTIAL|          s6 Scaling Factor:                               1.0000
 vdW POTENTIAL|          sr6 Scaling Factor:                              1.2170
 vdW POTENTIAL|          s8 Scaling Factor:                               0.7220
 vdW POTENTIAL|          Cutoff for CN calculation:                   0.1000E-05

 QS| Method:                                                                 GPW
 QS| Density plane wave grid type                        NON-SPHERICAL FULLSPACE
 QS| Number of grid levels:                                                    5
 QS| Density cutoff [a.u.]:                                                300.0
 QS| Multi grid cutoff [a.u.]: 1) grid level                               300.0
 QS|                           2) grid level                               100.0
 QS|                           3) grid level                                33.3
 QS|                           4) grid level                                11.1
 QS|                           5) grid level                                 3.7
 QS| Grid level progression factor:                                          3.0
 QS| Relative density cutoff [a.u.]:                                        30.0
 QS| Interaction thresholds: eps_pgf_orb:                                1.0E-06
 QS|                         eps_filter_matrix:                          0.0E+00
 QS|                         eps_core_charge:                            1.0E-14
 QS|                         eps_rho_gspace:                             1.0E-12
 QS|                         eps_rho_rspace:                             1.0E-12
 QS|                         eps_gvg_rspace:                             1.0E-06
 QS|                         eps_ppl:                                    1.0E-02
 QS|                         eps_ppnl:                                   1.0E-08


 ATOMIC KIND INFORMATION

  1. Atomic kind: Ni_i                                  Number of atoms:      16

     Orbital Basis Set                                        DZVP-MOLOPT-SR-GTH

       Number of orbital shell sets:                                           1
       Number of orbital shells:                                               8
       Number of primitive Cartesian functions:                                6
       Number of Cartesian basis functions:                                   31
       Number of spherical basis functions:                                   26
       Norm type:                                                              2

       Normalised Cartesian orbitals:

                        Set   Shell   Orbital            Exponent    Coefficient

                          1       1    2s               10.077428      -0.684558
                                                         5.847736      -0.844524
                                                         2.494033       1.088856
                                                         0.988355       0.395503
                                                         0.344978       0.010224
                                                         0.099466      -0.003250

                          1       2    3s               10.077428       0.096747
                                                         5.847736       0.162504
                                                         2.494033      -0.297192
                                                         0.988355      -0.319752
                                                         0.344978       0.088318
                                                         0.099466       0.118587

                          1       3    4s               10.077428       0.036437
                                                         5.847736      -0.381480
                                                         2.494033       0.003759
                                                         0.988355      -1.048256
                                                         0.344978       0.855825
                                                         0.099466      -0.176350

                          1       4    3px              10.077428      -3.133913
                                                         5.847736       3.027656
                                                         2.494033       2.353227
                                                         0.988355       0.554184
                                                         0.344978       0.019462
                                                         0.099466      -0.000291
                          1       4    3py              10.077428      -3.133913
                                                         5.847736       3.027656
                                                         2.494033       2.353227
                                                         0.988355       0.554184
                                                         0.344978       0.019462
                                                         0.099466      -0.000291
                          1       4    3pz              10.077428      -3.133913
                                                         5.847736       3.027656
                                                         2.494033       2.353227
                                                         0.988355       0.554184
                                                         0.344978       0.019462
                                                         0.099466      -0.000291

                          1       5    4px              10.077428      -0.112729
                                                         5.847736      -0.114008
                                                         2.494033      -0.347303
                                                         0.988355      -0.110323
                                                         0.344978       0.154096
                                                         0.099466       0.058386
                          1       5    4py              10.077428      -0.112729
                                                         5.847736      -0.114008
                                                         2.494033      -0.347303
                                                         0.988355      -0.110323
                                                         0.344978       0.154096
                                                         0.099466       0.058386
                          1       5    4pz              10.077428      -0.112729
                                                         5.847736      -0.114008
                                                         2.494033      -0.347303
                                                         0.988355      -0.110323
                                                         0.344978       0.154096
                                                         0.099466       0.058386

                          1       6    4dx2             10.077428       8.232726
                                                         5.847736       9.105758
                                                         2.494033       2.849835
                                                         0.988355       0.554319
                                                         0.344978       0.067245
                                                         0.099466       0.001940
                          1       6    4dxy             10.077428      14.259500
                                                         5.847736      15.771636
                                                         2.494033       4.936060
                                                         0.988355       0.960109
                                                         0.344978       0.116472
                                                         0.099466       0.003360
                          1       6    4dxz             10.077428      14.259500
                                                         5.847736      15.771636
                                                         2.494033       4.936060
                                                         0.988355       0.960109
                                                         0.344978       0.116472
                                                         0.099466       0.003360
                          1       6    4dy2             10.077428       8.232726
                                                         5.847736       9.105758
                                                         2.494033       2.849835
                                                         0.988355       0.554319
                                                         0.344978       0.067245
                                                         0.099466       0.001940
                          1       6    4dyz             10.077428      14.259500
                                                         5.847736      15.771636
                                                         2.494033       4.936060
                                                         0.988355       0.960109
                                                         0.344978       0.116472
                                                         0.099466       0.003360
                          1       6    4dz2             10.077428       8.232726
                                                         5.847736       9.105758
                                                         2.494033       2.849835
                                                         0.988355       0.554319
                                                         0.344978       0.067245
                                                         0.099466       0.001940

                          1       7    5dx2             10.077428      -2.715373
                                                         5.847736      -4.020640
                                                         2.494033      -1.397569
                                                         0.988355      -0.076143
                                                         0.344978       0.033435
                                                         0.099466       0.026032
                          1       7    5dxy             10.077428      -4.703164
                                                         5.847736      -6.963952
                                                         2.494033      -2.420661
                                                         0.988355      -0.131883
                                                         0.344978       0.057911
                                                         0.099466       0.045088
                          1       7    5dxz             10.077428      -4.703164
                                                         5.847736      -6.963952
                                                         2.494033      -2.420661
                                                         0.988355      -0.131883
                                                         0.344978       0.057911
                                                         0.099466       0.045088
                          1       7    5dy2             10.077428      -2.715373
                                                         5.847736      -4.020640
                                                         2.494033      -1.397569
                                                         0.988355      -0.076143
                                                         0.344978       0.033435
                                                         0.099466       0.026032
                          1       7    5dyz             10.077428      -4.703164
                                                         5.847736      -6.963952
                                                         2.494033      -2.420661
                                                         0.988355      -0.131883
                                                         0.344978       0.057911
                                                         0.099466       0.045088
                          1       7    5dz2             10.077428      -2.715373
                                                         5.847736      -4.020640
                                                         2.494033      -1.397569
                                                         0.988355      -0.076143
                                                         0.344978       0.033435
                                                         0.099466       0.026032

                          1       8    5fx3             10.077428      -0.467694
                                                         5.847736       0.618100
                                                         2.494033       0.066069
                                                         0.988355       0.262898
                                                         0.344978       0.004720
                                                         0.099466       0.007748
                          1       8    5fx2y            10.077428      -1.045795
                                                         5.847736       1.382114
                                                         2.494033       0.147734
                                                         0.988355       0.587859
                                                         0.344978       0.010555
                                                         0.099466       0.017325
                          1       8    5fx2z            10.077428      -1.045795
                                                         5.847736       1.382114
                                                         2.494033       0.147734
                                                         0.988355       0.587859
                                                         0.344978       0.010555
                                                         0.099466       0.017325
                          1       8    5fxy2            10.077428      -1.045795
                                                         5.847736       1.382114
                                                         2.494033       0.147734
                                                         0.988355       0.587859
                                                         0.344978       0.010555
                                                         0.099466       0.017325
                          1       8    5fxyz            10.077428      -1.811371
                                                         5.847736       2.393892
                                                         2.494033       0.255883
                                                         0.988355       1.018201
                                                         0.344978       0.018282
                                                         0.099466       0.030008
                          1       8    5fxz2            10.077428      -1.045795
                                                         5.847736       1.382114
                                                         2.494033       0.147734
                                                         0.988355       0.587859
                                                         0.344978       0.010555
                                                         0.099466       0.017325
                          1       8    5fy3             10.077428      -0.467694
                                                         5.847736       0.618100
                                                         2.494033       0.066069
                                                         0.988355       0.262898
                                                         0.344978       0.004720
                                                         0.099466       0.007748
                          1       8    5fy2z            10.077428      -1.045795
                                                         5.847736       1.382114
                                                         2.494033       0.147734
                                                         0.988355       0.587859
                                                         0.344978       0.010555
                                                         0.099466       0.017325
                          1       8    5fyz2            10.077428      -1.045795
                                                         5.847736       1.382114
                                                         2.494033       0.147734
                                                         0.988355       0.587859
                                                         0.344978       0.010555
                                                         0.099466       0.017325
                          1       8    5fz3             10.077428      -0.467694
                                                         5.847736       0.618100
                                                         2.494033       0.066069
                                                         0.988355       0.262898
                                                         0.344978       0.004720
                                                         0.099466       0.007748

       Atomic covalent radius [Angstrom]:                                  1.150

       Atomic van der Waals radius [Angstrom]:                             1.630

     GTH Potential information for                                   GTH-PBE-q18

       Description:                       Goedecker-Teter-Hutter pseudopotential
                                           Goedecker et al., PRB 54, 1703 (1996)
                                          Hartwigsen et al., PRB 58, 3641 (1998)
                                                      Krack, TCA 114, 145 (2005)

       Gaussian exponent of the core charge distribution:               4.081633
       Electronic configuration (s p d ...):                           4   6   8

       Parameters of the local part of the GTH pseudopotential:

                          rloc        C1          C2          C3          C4
                        0.350000    2.102166    0.648484

       Parameters of the non-local part of the GTH pseudopotential:

                   l      r(l)      h(i,j,l)

                   0    0.261295    0.622658    9.970227
                                    9.970227  -12.871507
                   1    0.224253  -11.142708   12.429566
                                   12.429566  -14.706861
                   2    0.215348  -12.628146

  2. Atomic kind: Ni_b                                  Number of atoms:      16

     Orbital Basis Set                                        DZVP-MOLOPT-SR-GTH

       Number of orbital shell sets:                                           1
       Number of orbital shells:                                               8
       Number of primitive Cartesian functions:                                6
       Number of Cartesian basis functions:                                   31
       Number of spherical basis functions:                                   26
       Norm type:                                                              2

       Normalised Cartesian orbitals:

                        Set   Shell   Orbital            Exponent    Coefficient

                          1       1    2s               10.077428      -0.684558
                                                         5.847736      -0.844524
                                                         2.494033       1.088856
                                                         0.988355       0.395503
                                                         0.344978       0.010224
                                                         0.099466      -0.003250

                          1       2    3s               10.077428       0.096747
                                                         5.847736       0.162504
                                                         2.494033      -0.297192
                                                         0.988355      -0.319752
                                                         0.344978       0.088318
                                                         0.099466       0.118587

                          1       3    4s               10.077428       0.036437
                                                         5.847736      -0.381480
                                                         2.494033       0.003759
                                                         0.988355      -1.048256
                                                         0.344978       0.855825
                                                         0.099466      -0.176350

                          1       4    3px              10.077428      -3.133913
                                                         5.847736       3.027656
                                                         2.494033       2.353227
                                                         0.988355       0.554184
                                                         0.344978       0.019462
                                                         0.099466      -0.000291
                          1       4    3py              10.077428      -3.133913
                                                         5.847736       3.027656
                                                         2.494033       2.353227
                                                         0.988355       0.554184
                                                         0.344978       0.019462
                                                         0.099466      -0.000291
                          1       4    3pz              10.077428      -3.133913
                                                         5.847736       3.027656
                                                         2.494033       2.353227
                                                         0.988355       0.554184
                                                         0.344978       0.019462
                                                         0.099466      -0.000291

                          1       5    4px              10.077428      -0.112729
                                                         5.847736      -0.114008
                                                         2.494033      -0.347303
                                                         0.988355      -0.110323
                                                         0.344978       0.154096
                                                         0.099466       0.058386
                          1       5    4py              10.077428      -0.112729
                                                         5.847736      -0.114008
                                                         2.494033      -0.347303
                                                         0.988355      -0.110323
                                                         0.344978       0.154096
                                                         0.099466       0.058386
                          1       5    4pz              10.077428      -0.112729
                                                         5.847736      -0.114008
                                                         2.494033      -0.347303
                                                         0.988355      -0.110323
                                                         0.344978       0.154096
                                                         0.099466       0.058386

                          1       6    4dx2             10.077428       8.232726
                                                         5.847736       9.105758
                                                         2.494033       2.849835
                                                         0.988355       0.554319
                                                         0.344978       0.067245
                                                         0.099466       0.001940
                          1       6    4dxy             10.077428      14.259500
                                                         5.847736      15.771636
                                                         2.494033       4.936060
                                                         0.988355       0.960109
                                                         0.344978       0.116472
                                                         0.099466       0.003360
                          1       6    4dxz             10.077428      14.259500
                                                         5.847736      15.771636
                                                         2.494033       4.936060
                                                         0.988355       0.960109
                                                         0.344978       0.116472
                                                         0.099466       0.003360
                          1       6    4dy2             10.077428       8.232726
                                                         5.847736       9.105758
                                                         2.494033       2.849835
                                                         0.988355       0.554319
                                                         0.344978       0.067245
                                                         0.099466       0.001940
                          1       6    4dyz             10.077428      14.259500
                                                         5.847736      15.771636
                                                         2.494033       4.936060
                                                         0.988355       0.960109
                                                         0.344978       0.116472
                                                         0.099466       0.003360
                          1       6    4dz2             10.077428       8.232726
                                                         5.847736       9.105758
                                                         2.494033       2.849835
                                                         0.988355       0.554319
                                                         0.344978       0.067245
                                                         0.099466       0.001940

                          1       7    5dx2             10.077428      -2.715373
                                                         5.847736      -4.020640
                                                         2.494033      -1.397569
                                                         0.988355      -0.076143
                                                         0.344978       0.033435
                                                         0.099466       0.026032
                          1       7    5dxy             10.077428      -4.703164
                                                         5.847736      -6.963952
                                                         2.494033      -2.420661
                                                         0.988355      -0.131883
                                                         0.344978       0.057911
                                                         0.099466       0.045088
                          1       7    5dxz             10.077428      -4.703164
                                                         5.847736      -6.963952
                                                         2.494033      -2.420661
                                                         0.988355      -0.131883
                                                         0.344978       0.057911
                                                         0.099466       0.045088
                          1       7    5dy2             10.077428      -2.715373
                                                         5.847736      -4.020640
                                                         2.494033      -1.397569
                                                         0.988355      -0.076143
                                                         0.344978       0.033435
                                                         0.099466       0.026032
                          1       7    5dyz             10.077428      -4.703164
                                                         5.847736      -6.963952
                                                         2.494033      -2.420661
                                                         0.988355      -0.131883
                                                         0.344978       0.057911
                                                         0.099466       0.045088
                          1       7    5dz2             10.077428      -2.715373
                                                         5.847736      -4.020640
                                                         2.494033      -1.397569
                                                         0.988355      -0.076143
                                                         0.344978       0.033435
                                                         0.099466       0.026032

                          1       8    5fx3             10.077428      -0.467694
                                                         5.847736       0.618100
                                                         2.494033       0.066069
                                                         0.988355       0.262898
                                                         0.344978       0.004720
                                                         0.099466       0.007748
                          1       8    5fx2y            10.077428      -1.045795
                                                         5.847736       1.382114
                                                         2.494033       0.147734
                                                         0.988355       0.587859
                                                         0.344978       0.010555
                                                         0.099466       0.017325
                          1       8    5fx2z            10.077428      -1.045795
                                                         5.847736       1.382114
                                                         2.494033       0.147734
                                                         0.988355       0.587859
                                                         0.344978       0.010555
                                                         0.099466       0.017325
                          1       8    5fxy2            10.077428      -1.045795
                                                         5.847736       1.382114
                                                         2.494033       0.147734
                                                         0.988355       0.587859
                                                         0.344978       0.010555
                                                         0.099466       0.017325
                          1       8    5fxyz            10.077428      -1.811371
                                                         5.847736       2.393892
                                                         2.494033       0.255883
                                                         0.988355       1.018201
                                                         0.344978       0.018282
                                                         0.099466       0.030008
                          1       8    5fxz2            10.077428      -1.045795
                                                         5.847736       1.382114
                                                         2.494033       0.147734
                                                         0.988355       0.587859
                                                         0.344978       0.010555
                                                         0.099466       0.017325
                          1       8    5fy3             10.077428      -0.467694
                                                         5.847736       0.618100
                                                         2.494033       0.066069
                                                         0.988355       0.262898
                                                         0.344978       0.004720
                                                         0.099466       0.007748
                          1       8    5fy2z            10.077428      -1.045795
                                                         5.847736       1.382114
                                                         2.494033       0.147734
                                                         0.988355       0.587859
                                                         0.344978       0.010555
                                                         0.099466       0.017325
                          1       8    5fyz2            10.077428      -1.045795
                                                         5.847736       1.382114
                                                         2.494033       0.147734
                                                         0.988355       0.587859
                                                         0.344978       0.010555
                                                         0.099466       0.017325
                          1       8    5fz3             10.077428      -0.467694
                                                         5.847736       0.618100
                                                         2.494033       0.066069
                                                         0.988355       0.262898
                                                         0.344978       0.004720
                                                         0.099466       0.007748

       Atomic covalent radius [Angstrom]:                                  1.150

       Atomic van der Waals radius [Angstrom]:                             1.630

     GTH Potential information for                                   GTH-PBE-q18

       Description:                       Goedecker-Teter-Hutter pseudopotential
                                           Goedecker et al., PRB 54, 1703 (1996)
                                          Hartwigsen et al., PRB 58, 3641 (1998)
                                                      Krack, TCA 114, 145 (2005)

       Gaussian exponent of the core charge distribution:               4.081633
       Electronic configuration (s p d ...):                           4   6   8

       Parameters of the local part of the GTH pseudopotential:

                          rloc        C1          C2          C3          C4
                        0.350000    2.102166    0.648484

       Parameters of the non-local part of the GTH pseudopotential:

                   l      r(l)      h(i,j,l)

                   0    0.261295    0.622658    9.970227
                                    9.970227  -12.871507
                   1    0.224253  -11.142708   12.429566
                                   12.429566  -14.706861
                   2    0.215348  -12.628146


 MOLECULE KIND INFORMATION


 All atoms are their own molecule, skipping detailed information


 TOTAL NUMBERS AND MAXIMUM NUMBERS

  Total number of            - Atomic kinds:                                   2
                             - Atoms:                                         32
                             - Shell sets:                                    32
                             - Shells:                                       256
                             - Primitive Cartesian functions:                192
                             - Cartesian basis functions:                    992
                             - Spherical basis functions:                    832

  Maximum angular momentum of- Orbital basis functions:                        3
                             - Local part of the GTH pseudopotential:          2
                             - Non-local part of the GTH pseudopotential:      3


 MODULE QUICKSTEP: ATOMIC COORDINATES IN ANGSTROM

   Atom Kind Element         X             Y             Z       Z(eff)     Mass
      1    1 Ni   28      0.876298      0.876298      7.370500  18.0000  58.6934
      2    1 Ni   28      0.876298      4.382298      7.370500  18.0000  58.6934
      3    1 Ni   28      2.629298      2.629298      7.370500  18.0000  58.6934
      4    1 Ni   28      2.629298      6.135298      7.370500  18.0000  58.6934
      5    1 Ni   28      4.382298      0.876298      7.370500  18.0000  58.6934
      6    1 Ni   28      4.382298      4.382298      7.370500  18.0000  58.6934
      7    1 Ni   28      6.135298      2.629298      7.370500  18.0000  58.6934
      8    1 Ni   28      6.135298      6.135298      7.370500  18.0000  58.6934
      9    2 Ni   28      0.876298      2.629298      9.123500  18.0000  58.6934
     10    2 Ni   28      0.876298      6.135298      9.123500  18.0000  58.6934
     11    2 Ni   28      2.629298      0.876298      9.123500  18.0000  58.6934
     12    2 Ni   28      2.629298      4.382298      9.123500  18.0000  58.6934
     13    2 Ni   28      4.382298      2.629298      9.123500  18.0000  58.6934
     14    2 Ni   28      4.382298      6.135298      9.123500  18.0000  58.6934
     15    2 Ni   28      6.135298      0.876298      9.123500  18.0000  58.6934
     16    2 Ni   28      6.135298      4.382298      9.123500  18.0000  58.6934
     17    2 Ni   28      0.876298      0.876298     10.876500  18.0000  58.6934
     18    2 Ni   28      0.876298      4.382298     10.876500  18.0000  58.6934
     19    2 Ni   28      2.629298      2.629298     10.876500  18.0000  58.6934
     20    2 Ni   28      2.629298      6.135298     10.876500  18.0000  58.6934
     21    2 Ni   28      4.382298      0.876298     10.876500  18.0000  58.6934
     22    2 Ni   28      4.382298      4.382298     10.876500  18.0000  58.6934
     23    2 Ni   28      6.135298      2.629298     10.876500  18.0000  58.6934
     24    2 Ni   28      6.135298      6.135298     10.876500  18.0000  58.6934
     25    1 Ni   28      0.876298      2.629298     12.629500  18.0000  58.6934
     26    1 Ni   28      0.876298      6.135298     12.629500  18.0000  58.6934
     27    1 Ni   28      2.629298      0.876298     12.629500  18.0000  58.6934
     28    1 Ni   28      2.629298      4.382298     12.629500  18.0000  58.6934
     29    1 Ni   28      4.382298      2.629298     12.629500  18.0000  58.6934
     30    1 Ni   28      4.382298      6.135298     12.629500  18.0000  58.6934
     31    1 Ni   28      6.135298      0.876298     12.629500  18.0000  58.6934
     32    1 Ni   28      6.135298      4.382298     12.629500  18.0000  58.6934



 SCF PARAMETERS         Density guess:                                    ATOMIC
                        --------------------------------------------------------
                        max_scf:                                             500
                        max_scf_history:                                       0
                        max_diis:                                              4
                        --------------------------------------------------------
                        eps_scf:                                        5.00E-04
                        eps_scf_history:                                0.00E+00
                        eps_diis:                                       1.00E-01
                        eps_eigval:                                     1.00E-05
                        --------------------------------------------------------
                        level_shift [a.u.]:                             0.000000
                        added MOs                                       534  553
                        --------------------------------------------------------
                        Mixing method:                            BROYDEN_MIXING
                                                charge density mixing in g-space
                        --------------------------------------------------------
                        Smear method:                                FERMI_DIRAC
                        Electronic temperature [K]:                       2000.0
                        Electronic temperature [a.u.]:                  6.33E-03
                        Accuracy threshold:                             1.00E-10
                        --------------------------------------------------------
                        No outer SCF

 PW_GRID| Information for grid number                                          1
 PW_GRID| Grid distributed over                                   128 processors
 PW_GRID| Real space group dimensions                                     8   16
 PW_GRID| the grid is blocked:                                               YES
 PW_GRID| Cutoff [a.u.]                                                    300.0
 PW_GRID| spherical cutoff:                                                   NO
 PW_GRID|   Bounds   1            -54      53                Points:         108
 PW_GRID|   Bounds   2            -54      53                Points:         108
 PW_GRID|   Bounds   3           -150     149                Points:         300
 PW_GRID| Volume element (a.u.^3)  0.1896E-02     Volume (a.u.^3)      6635.2971
 PW_GRID| Grid span                                                    FULLSPACE
 PW_GRID|   Distribution                         Average         Max         Min
 PW_GRID|   G-Vectors                            27337.5       28728       25272
 PW_GRID|   G-Rays                                 253.1         266         234
 PW_GRID|   Real Space Points                    27337.5       28728       25272

 PW_GRID| Information for grid number                                          2
 PW_GRID| Number of the reference grid                                         1
 PW_GRID| Grid distributed over                                   128 processors
 PW_GRID| Real space group dimensions                                     8   16
 PW_GRID| the grid is blocked:                                                NO
 PW_GRID| Cutoff [a.u.]                                                    100.0
 PW_GRID| spherical cutoff:                                                   NO
 PW_GRID|   Bounds   1            -30      29                Points:          60
 PW_GRID|   Bounds   2            -30      29                Points:          60
 PW_GRID|   Bounds   3            -90      89                Points:         180
 PW_GRID| Volume element (a.u.^3)  0.1024E-01     Volume (a.u.^3)      6635.2971
 PW_GRID| Grid span                                                    FULLSPACE
 PW_GRID|   Distribution                         Average         Max         Min
 PW_GRID|   G-Vectors                             5062.5       15960           0
 PW_GRID|   G-Rays                                  84.4         266           0
 PW_GRID|   Real Space Points                     5062.5        5760        3780

 PW_GRID| Information for grid number                                          3
 PW_GRID| Number of the reference grid                                         1
 PW_GRID| Grid distributed over                                   128 processors
 PW_GRID| Real space group dimensions                                     8   16
 PW_GRID| the grid is blocked:                                                NO
 PW_GRID| Cutoff [a.u.]                                                     33.3
 PW_GRID| spherical cutoff:                                                   NO
 PW_GRID|   Bounds   1            -18      17                Points:          36
 PW_GRID|   Bounds   2            -18      17                Points:          36
 PW_GRID|   Bounds   3            -50      49                Points:         100
 PW_GRID| Volume element (a.u.^3)  0.5120E-01     Volume (a.u.^3)      6635.2971
 PW_GRID| Grid span                                                    FULLSPACE
 PW_GRID|   Distribution                         Average         Max         Min
 PW_GRID|   G-Vectors                             1012.5        9576           0
 PW_GRID|   G-Rays                                  28.1         266           0
 PW_GRID|   Real Space Points                     1012.5        1500         800

 PW_GRID| Information for grid number                                          4
 PW_GRID| Number of the reference grid                                         1
 PW_GRID| Grid distributed over                                   128 processors
 PW_GRID| Real space group dimensions                                     8   16
 PW_GRID| the grid is blocked:                                                NO
 PW_GRID| Cutoff [a.u.]                                                     11.1
 PW_GRID| spherical cutoff:                                                   NO
 PW_GRID|   Bounds   1            -10       9                Points:          20
 PW_GRID|   Bounds   2            -10       9                Points:          20
 PW_GRID|   Bounds   3            -30      29                Points:          60
 PW_GRID| Volume element (a.u.^3)  0.2765         Volume (a.u.^3)      6635.2971
 PW_GRID| Grid span                                                    FULLSPACE
 PW_GRID|   Distribution                         Average         Max         Min
 PW_GRID|   G-Vectors                              187.5        3800           0
 PW_GRID|   G-Rays                                   9.4         190           0
 PW_GRID|   Real Space Points                      187.5         360         120

 PW_GRID| Information for grid number                                          5
 PW_GRID| Number of the reference grid                                         1
 PW_GRID| Grid distributed over                                   128 processors
 PW_GRID| Real space group dimensions                                     8   16
 PW_GRID| the grid is blocked:                                                NO
 PW_GRID| Cutoff [a.u.]                                                      3.7
 PW_GRID| spherical cutoff:                                                   NO
 PW_GRID|   Bounds   1             -6       5                Points:          12
 PW_GRID|   Bounds   2             -6       5                Points:          12
 PW_GRID|   Bounds   3            -18      17                Points:          36
 PW_GRID| Volume element (a.u.^3)   1.280         Volume (a.u.^3)      6635.2971
 PW_GRID| Grid span                                                    FULLSPACE
 PW_GRID|   Distribution                         Average         Max         Min
 PW_GRID|   G-Vectors                               40.5        1296           0
 PW_GRID|   G-Rays                                   3.4         108           0
 PW_GRID|   Real Space Points                       40.5          72           0

 POISSON| Solver                                                        PERIODIC
 POISSON| Periodicity                                                        XYZ

 RS_GRID| Information for grid number                                          1
 RS_GRID|   Bounds   1            -54      53                Points:         108
 RS_GRID|   Bounds   2            -54      53                Points:         108
 RS_GRID|   Bounds   3           -150     149                Points:         300
 RS_GRID| Real space distribution over                                  8 groups
 RS_GRID| Real space distribution along direction                              2
 RS_GRID| Border size                                                         28
 RS_GRID| Real space distribution over                                 16 groups
 RS_GRID| Real space distribution along direction                              3
 RS_GRID| Border size                                                         28
 RS_GRID|   Distribution                         Average         Max         Min
 RS_GRID|   Planes                                  69.5          70          69
 RS_GRID|   Distribution                         Average         Max         Min
 RS_GRID|   Planes                                  74.8          75          74

 RS_GRID| Information for grid number                                          2
 RS_GRID|   Bounds   1            -30      29                Points:          60
 RS_GRID|   Bounds   2            -30      29                Points:          60
 RS_GRID|   Bounds   3            -90      89                Points:         180
 RS_GRID| Real space fully replicated
 RS_GRID| Group size                                                           1

 RS_GRID| Information for grid number                                          3
 RS_GRID|   Bounds   1            -18      17                Points:          36
 RS_GRID|   Bounds   2            -18      17                Points:          36
 RS_GRID|   Bounds   3            -50      49                Points:         100
 RS_GRID| Real space fully replicated
 RS_GRID| Group size                                                           1

 RS_GRID| Information for grid number                                          4
 RS_GRID|   Bounds   1            -10       9                Points:          20
 RS_GRID|   Bounds   2            -10       9                Points:          20
 RS_GRID|   Bounds   3            -30      29                Points:          60
 RS_GRID| Real space fully replicated
 RS_GRID| Group size                                                           1

 RS_GRID| Information for grid number                                          5
 RS_GRID|   Bounds   1             -6       5                Points:          12
 RS_GRID|   Bounds   2             -6       5                Points:          12
 RS_GRID|   Bounds   3            -18      17                Points:          36
 RS_GRID| Real space fully replicated
 RS_GRID| Group size                                                           1

 Spin 1

 Number of electrons:                                                        297.600
 Number of occupied orbitals:                                                298
 Number of molecular orbitals:                                               832

 Spin 2

 Number of electrons:                                                        278.400
 Number of occupied orbitals:                                                279
 Number of molecular orbitals:                                               832

 Number of orbital functions:                                                832
 Number of independent orbital functions:                                    832

 Extrapolation method: initial_guess

 Atomic guess: The first density matrix is obtained in terms of atomic orbitals
               and electronic configurations assigned to each atomic kind

 Guess for atomic kind: Ni_i

 Electronic structure
    Total number of core electrons                                         10.00
    Total number of valence electrons                                      18.00
    Total number of electrons                                              28.00
    Multiplicity                                                         doublet
    Alpha Electrons
    S   [  1.00  1.00] 1.00  1.00
    P   [  3.00] 3.00
    D      4.35
    Beta Electrons
    S   [  1.00  1.00] 1.00  1.00
    P   [  3.00] 3.00
    D      3.65


 *******************************************************************************
                  Iteration          Convergence                     Energy [au]
 *******************************************************************************
                          1         1.51729                    -167.067424631347
                          2         15.3902                    -156.642654318634
                          3         2.33433                    -168.319355313541
                          4        0.206730                    -168.609905008081
                          5        0.814175E-01                -168.612873080494
                          6        0.173318E-01                -168.613470181066
                          7        0.290432E-02                -168.613543571401
                          8        0.311825E-02                -168.613543401474
                          9        0.179670E-03                -168.613544404477
                         10        0.169386E-02                -168.613544207811
                         11        0.473341E-03                -168.613544360253
                         12        0.165417E-03                -168.613544400419
                         13        0.162622E-03                -168.613544401489
                         14        0.158325E-03                -168.613544403900
                         15        0.177007E-03                -168.613544402509
                         16        0.138916E-03                -168.613544404900
                         17        0.934549E-04                -168.613544406149
                         18        0.119916E-03                -168.613544405789
                         19        0.131607E-03                -168.613544405591
                         20        0.169309E-03                -168.613544404773
                         21        0.551337E-04                -168.613544406656
                         22        0.382664E-04                -168.613544406759
                         23        0.378942E-04                -168.613544406765
                         24        0.381089E-04                -168.613544406765
                         25        0.390835E-04                -168.613544406759
                         26        0.308614E-04                -168.613544406841
                         27        0.205044E-04                -168.613544406892
                         28        0.200942E-04                -168.613544406893
                         29        0.199375E-04                -168.613544406893
                         30        0.200198E-04                -168.613544406894
                         31        0.161325E-04                -168.613544406903
                         32        0.330614E-05                -168.613544406925
                         33        0.238713E-05                -168.613544406926
                         34        0.265439E-05                -168.613544406926
                         35        0.277073E-05                -168.613544406926
                         36        0.335175E-05                -168.613544406926
                         37        0.148809E-05                -168.613544406927
                         38        0.133447E-05                -168.613544406927
                         39        0.918735E-06                -168.613544406927

 Energy components [Hartree]           Total Energy ::         -168.613544406927
                                        Band Energy ::          -26.569761966525
                                     Kinetic Energy ::           97.306723392622
                                   Potential Energy ::         -265.920267799548
                                      Virial (-V/T) ::            2.732804666812
                                        Core Energy ::         -299.567979157577
                                          XC Energy ::          -16.227189041387
                                     Coulomb Energy ::          147.181623792037
                       Total Pseudopotential Energy ::         -396.961043505191
                       Local Pseudopotential Energy ::         -362.648291121960
                    Nonlocal Pseudopotential Energy ::          -34.312752383230
                                        Confinement ::            0.863409549921

 Orbital energies  State     Spin  L     Occupation   Energy[a.u.]    Energy[eV]

                       1    alpha  0          1.000      -4.172666   -113.544030
                       2    alpha  0          1.000      -0.181431     -4.936983
                       1     beta  0          1.000      -4.140640   -112.672541
                       2     beta  0          1.000      -0.176372     -4.799339

                       1    alpha  1          3.000      -2.578739    -70.171064
                       1     beta  1          3.000      -2.547579    -69.323162

                       1    alpha  2          4.350      -0.327039     -8.899191
                       1     beta  2          3.650      -0.300569     -8.178887


 Total Electron Density at R=0:                                         0.030422

 Guess for atomic kind: Ni_b

 Electronic structure
    Total number of core electrons                                         10.00
    Total number of valence electrons                                      18.00
    Total number of electrons                                              28.00
    Multiplicity                                                         doublet
    Alpha Electrons
    S   [  1.00  1.00] 1.00  1.00
    P   [  3.00] 3.00
    D      4.25
    Beta Electrons
    S   [  1.00  1.00] 1.00  1.00
    P   [  3.00] 3.00
    D      3.75


 *******************************************************************************
                  Iteration          Convergence                     Energy [au]
 *******************************************************************************
                          1         1.51687                    -167.065012761055
                          2         14.9817                    -156.620431300845
                          3         2.25575                    -168.317311438693
                          4        0.189210                    -168.607926092750
                          5        0.708658E-01                -168.610773319290
                          6        0.122256E-01                -168.611238205502
                          7        0.598421E-02                -168.611272268995
                          8        0.528277E-02                -168.611272438110
                          9        0.104644E-02                -168.611275321653
                         10        0.260234E-02                -168.611274926630
                         11        0.975322E-03                -168.611275328217
                         12        0.161067E-03                -168.611275447773
                         13        0.147413E-03                -168.611275446839
                         14        0.115114E-03                -168.611275449434
                         15        0.167217E-03                -168.611275445436
                         16        0.255374E-04                -168.611275450531
                         17        0.418369E-04                -168.611275450414
                         18        0.393709E-04                -168.611275450477
                         19        0.239931E-04                -168.611275450542
                         20        0.173885E-04                -168.611275450557
                         21        0.851368E-05                -168.611275450578
                         22        0.849928E-05                -168.611275450580
                         23        0.544937E-05                -168.611275450584
                         24        0.540003E-05                -168.611275450586
                         25        0.613371E-05                -168.611275450584
                         26        0.311593E-06                -168.611275450588

 Energy components [Hartree]           Total Energy ::         -168.611275450588
                                        Band Energy ::          -26.568680144499
                                     Kinetic Energy ::           97.303659243130
                                   Potential Energy ::         -265.914934693718
                                      Virial (-V/T) ::            2.732835915546
                                        Core Energy ::         -299.566189183323
                                          XC Energy ::          -16.224592878785
                                     Coulomb Energy ::          147.179506611520
                       Total Pseudopotential Energy ::         -396.956189041778
                       Local Pseudopotential Energy ::         -362.645043136649
                    Nonlocal Pseudopotential Energy ::          -34.311145905129
                                        Confinement ::            0.863406153250

 Orbital energies  State     Spin  L     Occupation   Energy[a.u.]    Energy[eV]

                       1    alpha  0          1.000      -4.168335   -113.426177
                       2    alpha  0          1.000      -0.180730     -4.917906
                       1     beta  0          1.000      -4.145459   -112.803683
                       2     beta  0          1.000      -0.177117     -4.819606

                       1    alpha  1          3.000      -2.574525    -70.056390
                       1     beta  1          3.000      -2.552268    -69.450746

                       1    alpha  2          4.250      -0.323446     -8.801405
                       1     beta  2          3.750      -0.304537     -8.286881


 Total Electron Density at R=0:                                         0.030429

 Spin 1
 Re-scaling the density matrix to get the right number of electrons for spin 1
                  # Electrons              Trace(P)               Scaling factor
                        297.600             297.600                        1.000

 Spin 2
 Re-scaling the density matrix to get the right number of electrons for spin 2
                  # Electrons              Trace(P)               Scaling factor
                        278.400             278.400                        1.000


 SCF WAVEFUNCTION OPTIMIZATION

  Step     Update method      Time    Convergence         Total energy    Change
  ------------------------------------------------------------------------------
     1 NoMix/Diag. 0.80E-01    1.6     0.87318318     -5426.4441344177 -5.43E+03
     2 Broy./Diag. 0.80E-01    1.5     0.08660748     -5319.4409409292  1.07E+02
[...]
   132 Broy./Diag. 0.80E-01    1.5     0.07916295     -5417.9567394261  5.63E-02
   133 Broy./Diag. 0.80E-01    1.5     0.07986603     -5417.9719579208 -1.52E-02
   134 Broy./Diag. 0.80E-01    1.5     0.03630074     -5417.9110861381  6.09E-02
   135 Broy./Diag. 0.80E-01    1.5     0.08311254     -5417.9523071438 -4.12E-02
   136 Broy./Diag. 0.80E-01    1.5     0.04822038     -5417.7785498541  1.74E-01
   137 Broy./Diag. 0.80E-01    1.5     0.03202301     -5417.8977404912 -1.19E-01
   138 Broy./Diag. 0.80E-01    1.5     0.03003277     -5418.1660693966 -2.68E-01
   139 Broy./Diag. 0.80E-01    1.5     0.04591509     -5418.1485311599  1.75E-02
   140 Broy./Diag. 0.80E-01    1.5     0.05637455     -5418.2515913159 -1.03E-01
   141 Broy./Diag. 0.80E-01    1.5     0.07587178     -5418.1094118347  1.42E-01
   142 Broy./Diag. 0.80E-01    1.5     0.07525949     -5417.7846259944  3.25E-01
   143 Broy./Diag. 0.80E-01    1.5     0.03361886     -5418.2335907762 -4.49E-01
   144 Broy./Diag. 0.80E-01    1.5     0.05241028     -5417.8816433280  3.52E-01
   145 Broy./Diag. 0.80E-01    1.5     0.11665504     -5417.6948634503  1.87E-01
   146 Broy./Diag. 0.80E-01    1.5     0.09245104     -5417.8904785797 -1.96E-01
   147 Broy./Diag. 0.80E-01    1.5     0.02826165     -5417.8825078216  7.97E-03
   148 Broy./Diag. 0.80E-01    1.5     0.03708990     -5417.8934432763 -1.09E-02
   149 Broy./Diag. 0.80E-01    1.5     0.11460679     -5417.8584134292  3.50E-02
   150 Broy./Diag. 0.80E-01    1.5     0.05096503     -5417.9115830213 -5.32E-02
   151 Broy./Diag. 0.80E-01    1.5     0.02741393     -5417.8052508845  1.06E-01
   152 Broy./Diag. 0.80E-01    1.5     0.06024624     -5417.7803968929  2.49E-02
   153 Broy./Diag. 0.80E-01    1.5     0.05503425     -5417.7438194097  3.66E-02
   154 Broy./Diag. 0.80E-01    1.5     0.02261794     -5417.7506436508 -6.82E-03
   155 Broy./Diag. 0.80E-01    1.5     0.02343269     -5417.7571850615 -6.54E-03
   156 Broy./Diag. 0.80E-01    1.5     0.06496152     -5417.7807959611 -2.36E-02
   157 Broy./Diag. 0.80E-01    1.5     0.02260716     -5418.0058608264 -2.25E-01
   158 Broy./Diag. 0.80E-01    1.5     0.02060075     -5418.0105237912 -4.66E-03
   159 Broy./Diag. 0.80E-01    1.5     0.17493654     -5418.0512479892 -4.07E-02
   160 Broy./Diag. 0.80E-01    1.5     0.02306365     -5418.1143071984 -6.31E-02
   161 Broy./Diag. 0.80E-01    1.5     0.06091292     -5418.1216296302 -7.32E-03
   162 Broy./Diag. 0.80E-01    1.5     0.06665792     -5418.0876456495  3.40E-02
   163 Broy./Diag. 0.80E-01    1.5     0.04687318     -5418.0758320450  1.18E-02
   164 Broy./Diag. 0.80E-01    1.5     0.05392712     -5418.1823119303 -1.06E-01
   165 Broy./Diag. 0.80E-01    1.5     0.07056329     -5418.0069945642  1.75E-01
   166 Broy./Diag. 0.80E-01    1.5     0.04421170     -5417.8987145832  1.08E-01
   167 Broy./Diag. 0.80E-01    1.5     0.06004624     -5417.8871547792  1.16E-02
   168 Broy./Diag. 0.80E-01    1.5     0.04805003     -5417.9946336989 -1.07E-01
   169 Broy./Diag. 0.80E-01    1.5     0.05980077     -5417.7876525997  2.07E-01
   170 Broy./Diag. 0.80E-01    1.5     0.04010780     -5417.9599662618 -1.72E-01
   171 Broy./Diag. 0.80E-01    1.5     0.06365567     -5417.8391287138  1.21E-01
   172 Broy./Diag. 0.80E-01    1.5     0.06421342     -5417.9896428507 -1.51E-01
   173 Broy./Diag. 0.80E-01    1.5     0.13859540     -5417.8185571101  1.71E-01
   174 Broy./Diag. 0.80E-01    1.5     0.07110463     -5418.2885018063 -4.70E-01
   175 Broy./Diag. 0.80E-01    1.5     0.05394787     -5417.7422315136  5.46E-01
   176 Broy./Diag. 0.80E-01    1.5     0.04737142     -5417.6809318832  6.13E-02
   177 Broy./Diag. 0.80E-01    1.5     0.04045061     -5417.8498818891 -1.69E-01
   178 Broy./Diag. 0.80E-01    1.5     0.03582637     -5417.9253279944 -7.54E-02
   179 Broy./Diag. 0.80E-01    1.5     0.01028625     -5417.8712112650  5.41E-02
   180 Broy./Diag. 0.80E-01    1.5     0.13165273     -5417.8098981387  6.13E-02
   181 Broy./Diag. 0.80E-01    1.5     0.06886040     -5417.7308948504  7.90E-02
   182 Broy./Diag. 0.80E-01    1.5     0.01920236     -5417.9085975167 -1.78E-01
   183 Broy./Diag. 0.80E-01    1.5     0.03499195     -5417.8131912540  9.54E-02
   184 Broy./Diag. 0.80E-01    1.5     0.12392818     -5417.6843691077  1.29E-01
   185 Broy./Diag. 0.80E-01    1.5     0.01231054     -5417.7604324331 -7.61E-02
   186 Broy./Diag. 0.80E-01    1.5     0.08426364     -5417.7161680269  4.43E-02
   187 Broy./Diag. 0.80E-01    1.5     0.01930727     -5417.7163756924 -2.08E-04
   188 Broy./Diag. 0.80E-01    1.5     0.02326011     -5417.7696914939 -5.33E-02
   189 Broy./Diag. 0.80E-01    1.5     0.11688937     -5417.7610254507  8.67E-03
   190 Broy./Diag. 0.80E-01    1.5     0.06089765     -5417.7311727536  2.99E-02
   191 Broy./Diag. 0.80E-01    1.5     0.01032896     -5417.6919731179  3.92E-02
   192 Broy./Diag. 0.80E-01    1.5     0.03291031     -5417.7101844730 -1.82E-02
   193 Broy./Diag. 0.80E-01    1.5     0.05268720     -5417.6196743201  9.05E-02
   194 Broy./Diag. 0.80E-01    1.5     0.08960119     -5417.7184341448 -9.88E-02
   195 Broy./Diag. 0.80E-01    1.5     0.13702964     -5417.9862483767 -2.68E-01
   196 Broy./Diag. 0.80E-01    1.5     0.06096888     -5418.1241960262 -1.38E-01
   197 Broy./Diag. 0.80E-01    1.5     0.07267686     -5418.1003160854  2.39E-02
   198 Broy./Diag. 0.80E-01    1.5     0.13703582     -5418.1416266359 -4.13E-02
   199 Broy./Diag. 0.80E-01    1.5     0.22583958     -5418.7352819209 -5.94E-01
   200 Broy./Diag. 0.80E-01    1.5     0.17422621     -5418.5227395237  2.13E-01
   201 Broy./Diag. 0.80E-01    1.5     0.08991854     -5417.6557162593  8.67E-01
   202 Broy./Diag. 0.80E-01    1.5     0.06484138     -5417.7794300587 -1.24E-01
   203 Broy./Diag. 0.80E-01    1.5     0.07993610     -5417.7984087220 -1.90E-02
   204 Broy./Diag. 0.80E-01    1.5     0.14658201     -5417.5716204221  2.27E-01
   205 Broy./Diag. 0.80E-01    1.5     0.05179258     -5417.3531244799  2.18E-01
   206 Broy./Diag. 0.80E-01    1.5     0.07949957     -5417.3241854709  2.89E-02
   207 Broy./Diag. 0.80E-01    1.5     0.11423930     -5417.3365143887 -1.23E-02
   208 Broy./Diag. 0.80E-01    1.5     0.11572114     -5417.6757603737 -3.39E-01
   209 Broy./Diag. 0.80E-01    1.5     0.08305073     -5417.4982120256  1.78E-01
   210 Broy./Diag. 0.80E-01    1.5     0.02320812     -5417.6666228300 -1.68E-01
   211 Broy./Diag. 0.80E-01    1.5     0.05784522     -5417.5250763499  1.42E-01
   212 Broy./Diag. 0.80E-01    1.5     0.20344404     -5417.4206024157  1.04E-01
   213 Broy./Diag. 0.80E-01    1.5     0.03950953     -5417.7778896552 -3.57E-01
   214 Broy./Diag. 0.80E-01    1.5     0.11431620     -5417.7182404546  5.96E-02
   215 Broy./Diag. 0.80E-01    1.5     0.22487104     -5417.6164588061  1.02E-01
   216 Broy./Diag. 0.80E-01    1.5     0.19333203     -5417.6071326014  9.33E-03
   217 Broy./Diag. 0.80E-01    1.5     0.06108665     -5417.7148170264 -1.08E-01
   218 Broy./Diag. 0.80E-01    1.5     0.07044346     -5417.7460608379 -3.12E-02
   219 Broy./Diag. 0.80E-01    1.5     0.06387376     -5417.9103827064 -1.64E-01
   220 Broy./Diag. 0.80E-01    1.5     0.24635597     -5418.0723269002 -1.62E-01
   221 Broy./Diag. 0.80E-01    1.5     0.11969724     -5418.1443572205 -7.20E-02
   222 Broy./Diag. 0.80E-01    1.5     0.05765070     -5418.6445910859 -5.00E-01
   223 Broy./Diag. 0.80E-01    1.5     0.07042186     -5418.2332790905  4.11E-01
   224 Broy./Diag. 0.80E-01    1.5     0.14578729     -5417.7652961002  4.68E-01
   225 Broy./Diag. 0.80E-01    1.5     0.11054689     -5418.2379193749 -4.73E-01
   226 Broy./Diag. 0.80E-01    1.5     0.06553824     -5417.8693824426  3.69E-01
   227 Broy./Diag. 0.80E-01    1.5     0.04750510     -5417.7812066121  8.82E-02
   228 Broy./Diag. 0.80E-01    1.5     0.21815627     -5417.5380560393  2.43E-01
   229 Broy./Diag. 0.80E-01    1.5     0.07444271     -5417.6079593764 -6.99E-02
   230 Broy./Diag. 0.80E-01    1.5     0.07173360     -5417.7742132588 -1.66E-01
   231 Broy./Diag. 0.80E-01    1.5     0.26722493     -5417.4273564023  3.47E-01
   232 Broy./Diag. 0.80E-01    1.5     0.12819363     -5419.8671898986 -2.44E+00
   233 Broy./Diag. 0.80E-01    1.5     0.09871824     -5418.8642443860  1.00E+00
   234 Broy./Diag. 0.80E-01    1.5     0.08288229     -5418.5387308510  3.26E-01
   235 Broy./Diag. 0.80E-01    1.5     0.04127025     -5418.4368365285  1.02E-01
   236 Broy./Diag. 0.80E-01    1.5     0.04781682     -5418.3181129758  1.19E-01
   237 Broy./Diag. 0.80E-01    1.5     0.05012462     -5418.1133080632  2.05E-01
   238 Broy./Diag. 0.80E-01    1.5     0.07555538     -5418.2338227323 -1.21E-01
   239 Broy./Diag. 0.80E-01    1.5     0.04225657     -5418.1406146715  9.32E-02
   240 Broy./Diag. 0.80E-01    1.5     0.11305593     -5418.3418453352 -2.01E-01
   241 Broy./Diag. 0.80E-01    1.5     0.18930290     -5418.8673623934 -5.26E-01
   242 Broy./Diag. 0.80E-01    1.5     0.06150860     -5419.3762859673 -5.09E-01
   243 Broy./Diag. 0.80E-01    1.5     0.05380791     -5419.3995106631 -2.32E-02
   244 Broy./Diag. 0.80E-01    1.5     0.11810294     -5419.2467982503  1.53E-01
   245 Broy./Diag. 0.80E-01    1.5     0.05054022     -5419.0414078961  2.05E-01
   246 Broy./Diag. 0.80E-01    1.5     0.07663178     -5418.9506580678  9.07E-02
   247 Broy./Diag. 0.80E-01    1.5     0.09688816     -5418.4977935477  4.53E-01
   248 Broy./Diag. 0.80E-01    1.5     0.07574734     -5418.2900201909  2.08E-01
   249 Broy./Diag. 0.80E-01    1.5     0.08250632     -5418.3962660444 -1.06E-01
   250 Broy./Diag. 0.80E-01    1.5     0.17222095     -5418.0724447586  3.24E-01
   251 Broy./Diag. 0.80E-01    1.5     0.12480646     -5417.8981567336  1.74E-01
   252 Broy./Diag. 0.80E-01    1.5     0.29060871     -5417.9595536888 -6.14E-02
   253 Broy./Diag. 0.80E-01    1.5     0.16431238     -5418.8448529334 -8.85E-01
   254 Broy./Diag. 0.80E-01    1.5     0.36317071     -5416.9477098255  1.90E+00
   255 Broy./Diag. 0.80E-01    1.5     0.33783257     -5418.3785246736 -1.43E+00
   256 Broy./Diag. 0.80E-01    1.5     0.34066120     -5418.6708978102 -2.92E-01
   257 Broy./Diag. 0.80E-01    1.5     0.26065782     -5418.4641143657  2.07E-01
   258 Broy./Diag. 0.80E-01    1.5     0.20304649     -5419.2148876314 -7.51E-01
   259 Broy./Diag. 0.80E-01    1.5     0.11651219     -5418.5353737952  6.80E-01
   260 Broy./Diag. 0.80E-01    1.5     0.09423301     -5418.7758210317 -2.40E-01
   261 Broy./Diag. 0.80E-01    1.5     0.38738890     -5419.0453199868 -2.69E-01
   262 Broy./Diag. 0.80E-01    1.5     0.35995867     -5418.9037428198  1.42E-01
   263 Broy./Diag. 0.80E-01    1.5     0.19961095     -5418.1876982591  7.16E-01
   264 Broy./Diag. 0.80E-01    1.5     0.22808854     -5417.7046571914  4.83E-01
   265 Broy./Diag. 0.80E-01    1.5     0.27434350     -5418.0157417946 -3.11E-01
   266 Broy./Diag. 0.80E-01    1.5     0.08019550     -5417.5258545306  4.90E-01
   267 Broy./Diag. 0.80E-01    1.5     0.14082943     -5417.7529960175 -2.27E-01
   268 Broy./Diag. 0.80E-01    1.6     0.03691378     -5417.4875221600  2.65E-01
   269 Broy./Diag. 0.80E-01    1.5     0.05235506     -5417.7204960030 -2.33E-01
   270 Broy./Diag. 0.80E-01    1.5     0.05161368     -5417.7775263024 -5.70E-02
   271 Broy./Diag. 0.80E-01    1.5     0.22250158     -5417.9299229411 -1.52E-01
   272 Broy./Diag. 0.80E-01    1.5     0.25372423     -5418.6662525627 -7.36E-01
   273 Broy./Diag. 0.80E-01    1.5     0.41975419     -5419.5468500532 -8.81E-01
   274 Broy./Diag. 0.80E-01    1.5     0.10509064     -5418.5068210241  1.04E+00
   275 Broy./Diag. 0.80E-01    1.5     0.08865210     -5417.9421998131  5.65E-01
   276 Broy./Diag. 0.80E-01    1.5     0.11925885     -5418.2351373519 -2.93E-01
   277 Broy./Diag. 0.80E-01    1.5     0.25397007     -5417.9188749450  3.16E-01
   278 Broy./Diag. 0.80E-01    1.5     0.05878230     -5418.1372777502 -2.18E-01
   279 Broy./Diag. 0.80E-01    1.5     0.08822972     -5418.4488844132 -3.12E-01
   280 Broy./Diag. 0.80E-01    1.5     0.46402837     -5418.5947153681 -1.46E-01
   281 Broy./Diag. 0.80E-01    1.5     0.50669696     -5418.7260759505 -1.31E-01
   282 Broy./Diag. 0.80E-01    1.5     0.20600925     -5418.9550879612 -2.29E-01
   283 Broy./Diag. 0.80E-01    1.5     0.16283692     -5418.2714244442  6.84E-01
   284 Broy./Diag. 0.80E-01    1.5     0.13501382     -5418.2192432519  5.22E-02
   285 Broy./Diag. 0.80E-01    1.5     0.14363589     -5418.7599758810 -5.41E-01
   286 Broy./Diag. 0.80E-01    1.5     0.22736968     -5418.7108408809  4.91E-02
   287 Broy./Diag. 0.80E-01    1.5     0.04259261     -5418.8500046667 -1.39E-01
   288 Broy./Diag. 0.80E-01    1.5     0.52510913     -5419.0186084903 -1.69E-01
   289 Broy./Diag. 0.80E-01    1.5     0.33429199     -5419.3973126694 -3.79E-01
   290 Broy./Diag. 0.80E-01    1.5     0.11005353     -5419.3473967681  4.99E-02
   291 Broy./Diag. 0.80E-01    1.5     0.24466514     -5419.3527377334 -5.34E-03
   292 Broy./Diag. 0.80E-01    1.5     0.22748492     -5420.2610840490 -9.08E-01
   293 Broy./Diag. 0.80E-01    1.5     0.22089112     -5419.2303632868  1.03E+00
   294 Broy./Diag. 0.80E-01    1.5     0.17116017     -5419.2408060666 -1.04E-02
   295 Broy./Diag. 0.80E-01    1.5     0.26106864     -5419.3031034908 -6.23E-02
   296 Broy./Diag. 0.80E-01    1.5     0.16569873     -5419.1642844287  1.39E-01
   297 Broy./Diag. 0.80E-01    1.5     0.27189359     -5419.1103429804  5.39E-02
   298 Broy./Diag. 0.80E-01    1.5     0.04750884     -5418.7199221690  3.90E-01
   299 Broy./Diag. 0.80E-01    1.5     0.09210995     -5418.7358717642 -1.59E-02
   300 Broy./Diag. 0.80E-01    1.5     0.12231053     -5418.3229199743  4.13E-01
   301 Broy./Diag. 0.80E-01    1.5     0.08115495     -5418.2312866975  9.16E-02
   302 Broy./Diag. 0.80E-01    1.5     0.33178552     -5418.2704252243 -3.91E-02
   303 Broy./Diag. 0.80E-01    1.5     0.11860595     -5417.3269892820  9.43E-01
   304 Broy./Diag. 0.80E-01    1.5     0.27555268     -5417.5498421147 -2.23E-01
   305 Broy./Diag. 0.80E-01    1.5     0.37126666     -5417.3701856412  1.80E-01
   306 Broy./Diag. 0.80E-01    1.5     0.09271631     -5415.2146389553  2.16E+00
   307 Broy./Diag. 0.80E-01    1.5     0.16826496     -5415.2502972837 -3.57E-02
   308 Broy./Diag. 0.80E-01    1.5     0.29108944     -5415.2213488119  2.89E-02
   309 Broy./Diag. 0.80E-01    1.5     0.07878180     -5416.0867790038 -8.65E-01
   310 Broy./Diag. 0.80E-01    1.5     0.61647825     -5415.8591291527  2.28E-01
   311 Broy./Diag. 0.80E-01    1.5     0.22883137     -5416.5321983119 -6.73E-01
   312 Broy./Diag. 0.80E-01    1.5     0.26154005     -5417.2292784985 -6.97E-01
   313 Broy./Diag. 0.80E-01    1.5     0.61701019     -5417.0006006610  2.29E-01
   314 Broy./Diag. 0.80E-01    1.5     0.47365445     -5418.4042236775 -1.40E+00
   315 Broy./Diag. 0.80E-01    1.5     0.30170217     -5419.3859216371 -9.82E-01
   316 Broy./Diag. 0.80E-01    1.5     0.31162558     -5418.9277079834  4.58E-01
   317 Broy./Diag. 0.80E-01    1.5     0.49008179     -5418.4825782638  4.45E-01
   318 Broy./Diag. 0.80E-01    1.5     0.24097068     -5421.2711726620 -2.79E+00
   319 Broy./Diag. 0.80E-01    1.5     0.20206068     -5419.5648839873  1.71E+00
   320 Broy./Diag. 0.80E-01    1.5     0.09133762     -5419.8524330451 -2.88E-01
   321 Broy./Diag. 0.80E-01    1.5     0.09653667     -5419.4188555770  4.34E-01
   322 Broy./Diag. 0.80E-01    1.5     0.41858560     -5419.0638346446  3.55E-01
   323 Broy./Diag. 0.80E-01    1.5     0.13679571     -5419.5537161382 -4.90E-01
   324 Broy./Diag. 0.80E-01    1.5     0.57749309     -5419.4788093684  7.49E-02
   325 Broy./Diag. 0.80E-01    1.5     0.45689612     -5419.0618675459  4.17E-01
   326 Broy./Diag. 0.80E-01    1.5     0.10378819     -5417.8355412669  1.23E+00
   327 Broy./Diag. 0.80E-01    1.5     0.12458792     -5417.6702478237  1.65E-01
   328 Broy./Diag. 0.80E-01    1.5     0.04820404     -5417.5951068466  7.51E-02
   329 Broy./Diag. 0.80E-01    1.5     0.13367752     -5417.2073388072  3.88E-01
   330 Broy./Diag. 0.80E-01    1.5     0.31870098     -5417.4347517854 -2.27E-01
   331 Broy./Diag. 0.80E-01    1.5     0.10983877     -5418.3904625759 -9.56E-01
   332 Broy./Diag. 0.80E-01    1.5     0.07357950     -5418.1478892631  2.43E-01
   333 Broy./Diag. 0.80E-01    1.5     0.30609797     -5418.0727515215  7.51E-02
   334 Broy./Diag. 0.80E-01    1.5     0.41370644     -5419.1342991305 -1.06E+00
   335 Broy./Diag. 0.80E-01    1.5     0.17699421     -5417.6478396832  1.49E+00
   336 Broy./Diag. 0.80E-01    1.5     0.34930049     -5417.9631254072 -3.15E-01
   337 Broy./Diag. 0.80E-01    1.5     0.16417118     -5417.7053978142  2.58E-01
   338 Broy./Diag. 0.80E-01    1.5     0.20756640     -5417.7272117562 -2.18E-02
   339 Broy./Diag. 0.80E-01    1.5     0.42414277     -5418.4680307089 -7.41E-01
   340 Broy./Diag. 0.80E-01    1.5     0.32548332     -5418.7745999762 -3.07E-01
   341 Broy./Diag. 0.80E-01    1.5     0.27950576     -5420.3509459750 -1.58E+00
   342 Broy./Diag. 0.80E-01    1.5     0.41771903     -5418.8639072927  1.49E+00
   343 Broy./Diag. 0.80E-01    1.5     0.14448800     -5418.8260308697  3.79E-02
   344 Broy./Diag. 0.80E-01    1.5     0.11618945     -5419.6773703520 -8.51E-01
   345 Broy./Diag. 0.80E-01    1.5     0.32873014     -5419.2136934970  4.64E-01
   346 Broy./Diag. 0.80E-01    1.5     0.41534273     -5419.5060535889 -2.92E-01
   347 Broy./Diag. 0.80E-01    1.5     0.20017137     -5420.4793496899 -9.73E-01
   348 Broy./Diag. 0.80E-01    1.5     0.19403880     -5420.2272483043  2.52E-01
   349 Broy./Diag. 0.80E-01    1.5     0.10699671     -5419.6141547372  6.13E-01
   350 Broy./Diag. 0.80E-01    1.5     0.25476331     -5419.0013060477  6.13E-01
   351 Broy./Diag. 0.80E-01    1.5     0.55639717     -5420.2448159015 -1.24E+00
   352 Broy./Diag. 0.80E-01    1.5     0.57895436     -5421.2624535042 -1.02E+00
   353 Broy./Diag. 0.80E-01    1.5     0.21058180     -5419.1627058437  2.10E+00
   354 Broy./Diag. 0.80E-01    1.5     0.06119001     -5418.2154570525  9.47E-01
   355 Broy./Diag. 0.80E-01    1.5     0.06007485     -5418.1231390013  9.23E-02
   356 Broy./Diag. 0.80E-01    1.5     0.21585018     -5418.3184324702 -1.95E-01
   357 Broy./Diag. 0.80E-01    1.5     0.28261407     -5417.7296689430  5.89E-01
   358 Broy./Diag. 0.80E-01    1.5     0.16869952     -5416.6198707404  1.11E+00
   359 Broy./Diag. 0.80E-01    1.5     0.10971529     -5415.9420150132  6.78E-01
   360 Broy./Diag. 0.80E-01    1.5     0.10303361     -5415.3962186808  5.46E-01
   361 Broy./Diag. 0.80E-01    1.5     0.74722526     -5415.0197099368  3.77E-01
   362 Broy./Diag. 0.80E-01    1.5     0.76376905     -5415.0529580064 -3.32E-02
   363 Broy./Diag. 0.80E-01    1.5     0.09332618     -5416.1738863993 -1.12E+00
   364 Broy./Diag. 0.80E-01    1.5     0.18922594     -5416.3346214888 -1.61E-01
   365 Broy./Diag. 0.80E-01    1.5     0.33311119     -5416.4263138398 -9.17E-02
   366 Broy./Diag. 0.80E-01    1.5     0.43384424     -5417.1167320572 -6.90E-01
   367 Broy./Diag. 0.80E-01    1.5     0.34211385     -5416.9251968520  1.92E-01
   368 Broy./Diag. 0.80E-01    1.5     0.59088635     -5416.4826226827  4.43E-01
   369 Broy./Diag. 0.80E-01    1.5     0.22906577     -5417.7408191194 -1.26E+00
   370 Broy./Diag. 0.80E-01    1.5     0.33987063     -5418.0367141989 -2.96E-01
   371 Broy./Diag. 0.80E-01    1.5     0.20826517     -5418.3233768650 -2.87E-01
   372 Broy./Diag. 0.80E-01    1.5     0.49746198     -5417.7281434518  5.95E-01
   373 Broy./Diag. 0.80E-01    1.5     0.82819074     -5417.3833035443  3.45E-01
   374 Broy./Diag. 0.80E-01    1.5     0.29825559     -5417.0854295931  2.98E-01
   375 Broy./Diag. 0.80E-01    1.5     0.39916812     -5418.5312460569 -1.45E+00
   376 Broy./Diag. 0.80E-01    1.5     0.24286202     -5416.3251965184  2.21E+00
   377 Broy./Diag. 0.80E-01    1.5     0.29745832     -5416.0330446141  2.92E-01
