 DBCSR| CPU Multiplication driver                                           XSMM (U)
 DBCSR| Multrec recursion limit                                              512 (U)
 DBCSR| Multiplication stack size                                           1000 (D)
 DBCSR| Maximum elements for images                                    UNLIMITED (U)
 DBCSR| Multiplicative factor virtual images                                   1 (U)
 DBCSR| Use multiplication densification                                       T (D)
 DBCSR| Multiplication size stacks                                             3 (U)
 DBCSR| Use memory pool for CPU allocation                                     F (U)
 DBCSR| Number of 3D layers                                               SINGLE (U)
 DBCSR| Use MPI memory allocation                                              F (U)
 DBCSR| Use RMA algorithm                                                      F (U)
 DBCSR| Use Communication thread                                               T (U)
 DBCSR| Communication thread load                                             87 (D)
 DBCSR| MPI: My process id                                                     0
 DBCSR| MPI: Number of processes                                             128
 DBCSR| OMP: Current number of threads                                         1
 DBCSR| OMP: Max number of threads                                             1
 DBCSR| Split modifier for TAS multiplication algorithm                  1.0E+00 (U)


  **** **** ******  **  PROGRAM STARTED AT               2023-02-15 12:19:36.554
 ***** ** ***  *** **   PROGRAM STARTED ON                             nid001651
 **    ****   ******    PROGRAM STARTED BY                                cahart
 ***** **    ** ** **   PROGRAM PROCESS ID                                258398
  **** **  *******  **  PROGRAM STARTED IN /mnt/lustre/a2fs-work2/work/e05/e05/c
                                           ahart/postdoc/masters/ni/archer2/slab
                                           /optimise/magnetisation/scf_1e-4_temp
                                           -2000_mos-1000_alpha-0.08_beta-1.5_pe
                                           riodic-xyz/search/0.42_0.6

 CP2K| version string:                 CP2K version 2023.1 (Development Version)
 CP2K| source code revision number:                                  git:964cd58
 CP2K| cp2kflags: omp libint fftw3 libxc elpa parallel scalapack xsmm plumed2 mk
 CP2K|            l
 CP2K| is freely available from                            https://www.cp2k.org/
 CP2K| Program compiled at                          Mon 13 Feb 17:05:14 GMT 2023
 CP2K| Program compiled on                                                  ln01
 CP2K| Program compiled for                                              ARCHER2
 CP2K| Data directory path    /work/e05/e05/cahart/cp2k/cp2k-2023.1/cp2k-2023.1-
 CP2K| Input file name                                                  cp2k.inp

 GLOBAL| Force Environment number                                              1
 GLOBAL| Basis set file name                                        BASIS_MOLOPT
 GLOBAL| Potential file name                                      GTH_POTENTIALS
 GLOBAL| MM Potential file name                                     MM_POTENTIAL
 GLOBAL| Coordinate file name                                      __STD_INPUT__
 GLOBAL| Method name                                                        CP2K
 GLOBAL| Project name                                                    Ni_bulk
 GLOBAL| Run type                                                         ENERGY
 GLOBAL| FFT library                                                       FFTW3
 GLOBAL| Diagonalization library                                            ELPA
 GLOBAL| DGEMM library                                                      BLAS
 GLOBAL| Minimum number of eigenvectors for ELPA usage                        16
 GLOBAL| Orthonormality check for eigenvectors                          DISABLED
 GLOBAL| Matrix multiplication library                                 ScaLAPACK
 GLOBAL| All-to-all communication in single precision                          F
 GLOBAL| FFTs using library dependent lengths                                  F
 GLOBAL| Grid backend                                                       AUTO
 GLOBAL| Global print level                                               MEDIUM
 GLOBAL| MPI I/O enabled                                                       T
 GLOBAL| Total number of message passing processes                           128
 GLOBAL| Number of threads for this process                                    1
 GLOBAL| This output is from process                                           0
 GLOBAL| Stack size for threads created by OpenMP (OMP_STACKSIZE)        default
 GLOBAL| CPU model name                          AMD EPYC 7742 64-Core Processor
 GLOBAL| CPUID                                                              1002

 MEMORY| system memory details [Kb]
 MEMORY|                        rank 0           min           max       average
 MEMORY| MemTotal            263528068     263528068     263528068     263528068
 MEMORY| MemFree             239207284     239207284     239207284     239207284
 MEMORY| Buffers                 24812         24812         24812         24812
 MEMORY| Cached                 630948        630948        630948        630948
 MEMORY| Slab                  1525004       1525004       1525004       1525004
 MEMORY| SReclaimable           104260        104260        104260        104260
 MEMORY| MemLikelyFree       239967304     239967304     239967304     239967304


 *** Fundamental physical constants (SI units) ***

 *** Literature: B. J. Mohr and B. N. Taylor,
 ***             CODATA recommended values of the fundamental physical
 ***             constants: 2006, Web Version 5.1
 ***             http://physics.nist.gov/constants

 Speed of light in vacuum [m/s]                             2.99792458000000E+08
 Magnetic constant or permeability of vacuum [N/A**2]       1.25663706143592E-06
 Electric constant or permittivity of vacuum [F/m]          8.85418781762039E-12
 Planck constant (h) [J*s]                                  6.62606896000000E-34
 Planck constant (h-bar) [J*s]                              1.05457162825177E-34
 Elementary charge [C]                                      1.60217648700000E-19
 Electron mass [kg]                                         9.10938215000000E-31
 Electron g factor [ ]                                     -2.00231930436220E+00
 Proton mass [kg]                                           1.67262163700000E-27
 Fine-structure constant                                    7.29735253760000E-03
 Rydberg constant [1/m]                                     1.09737315685270E+07
 Avogadro constant [1/mol]                                  6.02214179000000E+23
 Boltzmann constant [J/K]                                   1.38065040000000E-23
 Atomic mass unit [kg]                                      1.66053878200000E-27
 Bohr radius [m]                                            5.29177208590000E-11

 *** Conversion factors ***

 [u] -> [a.u.]                                              1.82288848426455E+03
 [Angstrom] -> [Bohr] = [a.u.]                              1.88972613288564E+00
 [a.u.] = [Bohr] -> [Angstrom]                              5.29177208590000E-01
 [a.u.] -> [s]                                              2.41888432650478E-17
 [a.u.] -> [fs]                                             2.41888432650478E-02
 [a.u.] -> [J]                                              4.35974393937059E-18
 [a.u.] -> [N]                                              8.23872205491840E-08
 [a.u.] -> [K]                                              3.15774647902944E+05
 [a.u.] -> [kJ/mol]                                         2.62549961709828E+03
 [a.u.] -> [kcal/mol]                                       6.27509468713739E+02
 [a.u.] -> [Pa]                                             2.94210107994716E+13
 [a.u.] -> [bar]                                            2.94210107994716E+08
 [a.u.] -> [atm]                                            2.90362800883016E+08
 [a.u.] -> [eV]                                             2.72113838565563E+01
 [a.u.] -> [Hz]                                             6.57968392072181E+15
 [a.u.] -> [1/cm] (wave numbers)                            2.19474631370540E+05
 [a.u./Bohr**2] -> [1/cm]                                   5.14048714338585E+03
 

 CELL_TOP| Volume [angstrom^3]:                                       983.249569
 CELL_TOP| Vector a [angstrom     7.012     0.000     0.000   |a| =     7.011596
 CELL_TOP| Vector b [angstrom     0.000     7.012     0.000   |b| =     7.011596
 CELL_TOP| Vector c [angstrom     0.000     0.000    20.000   |c| =    20.000000
 CELL_TOP| Angle (b,c), alpha [degree]:                                90.000000
 CELL_TOP| Angle (a,c), beta  [degree]:                                90.000000
 CELL_TOP| Angle (a,b), gamma [degree]:                                90.000000
 CELL_TOP| Numerically orthorhombic:                                         YES
 CELL_TOP| Periodicity                                                       XYZ

 GENERATE|  Preliminary Number of Bonds generated:                             0
 GENERATE|  Achieved consistency in connectivity generation.

 CELL| Volume [angstrom^3]:                                           983.249569
 CELL| Vector a [angstrom]:       7.012     0.000     0.000   |a| =     7.011596
 CELL| Vector b [angstrom]:       0.000     7.012     0.000   |b| =     7.011596
 CELL| Vector c [angstrom]:       0.000     0.000    20.000   |c| =    20.000000
 CELL| Angle (b,c), alpha [degree]:                                    90.000000
 CELL| Angle (a,c), beta  [degree]:                                    90.000000
 CELL| Angle (a,b), gamma [degree]:                                    90.000000
 CELL| Numerically orthorhombic:                                             YES
 CELL| Periodicity                                                           XYZ

 CELL_REF| Volume [angstrom^3]:                                       983.249569
 CELL_REF| Vector a [angstrom     7.012     0.000     0.000   |a| =     7.011596
 CELL_REF| Vector b [angstrom     0.000     7.012     0.000   |b| =     7.011596
 CELL_REF| Vector c [angstrom     0.000     0.000    20.000   |c| =    20.000000
 CELL_REF| Angle (b,c), alpha [degree]:                                90.000000
 CELL_REF| Angle (a,c), beta  [degree]:                                90.000000
 CELL_REF| Angle (a,b), gamma [degree]:                                90.000000
 CELL_REF| Numerically orthorhombic:                                         YES
 CELL_REF| Periodicity                                                       XYZ

 *** WARNING in cryssym.F:165 :: Symmetry library SPGLIB not available ***


 *******************************************************************************
                                    Kpoints
 *******************************************************************************
 BRILLOUIN| K-point scheme                                        Monkhorst-Pack
 BRILLOUIN| K-Point grid                                             4    4    1
 BRILLOUIN| Accuracy in Symmetry determination                      0.100000E-05
 BRILLOUIN| K-Point point group symmetrization                               OFF
 BRILLOUIN| Wavefunction type                                            COMPLEX
 BRILLOUIN| List of Kpoints [2 Pi/Bohr]                                        8
 BRILLOUIN| Number           Weight            X              Y              Z
 BRILLOUIN|     1           0.12500       -0.37500       -0.37500        0.00000
 BRILLOUIN|     2           0.12500       -0.37500       -0.12500        0.00000
 BRILLOUIN|     3           0.12500       -0.37500        0.12500        0.00000
 BRILLOUIN|     4           0.12500       -0.37500        0.37500        0.00000
 BRILLOUIN|     5           0.12500       -0.12500       -0.37500        0.00000
 BRILLOUIN|     6           0.12500       -0.12500       -0.12500        0.00000
 BRILLOUIN|     7           0.12500       -0.12500        0.12500        0.00000
 BRILLOUIN|     8           0.12500       -0.12500        0.37500        0.00000
 *******************************************************************************

 *******************************************************************************
 *******************************************************************************
 **                                                                           **
 **     #####                         ##              ##                      **
 **    ##   ##            ##          ##              ##                      **
 **   ##     ##                       ##            ######                    **
 **   ##     ##  ##   ##  ##   #####  ##  ##   ####   ##    #####    #####    **
 **   ##     ##  ##   ##  ##  ##      ## ##   ##      ##   ##   ##  ##   ##   **
 **   ##  ## ##  ##   ##  ##  ##      ####     ###    ##   ######   ######    **
 **    ##  ###   ##   ##  ##  ##      ## ##      ##   ##   ##       ##        **
 **     #######   #####   ##   #####  ##  ##  ####    ##    #####   ##        **
 **           ##                                                    ##        **
 **                                                                           **
 **                                                ... make the atoms dance   **
 **                                                                           **
 **            Copyright (C) by CP2K developers group (2000-2023)             **
 **                      J. Chem. Phys. 152, 194103 (2020)                    **
 **                                                                           **
 *******************************************************************************

 *** WARNING in qs_environment.F:1456 :: Number of electrons will be ***
 *** overwritten by NELEC_ALPHA and NELEC_BETA, multiplicity will be ***
 *** ignored.                                                        ***

 Number of electrons should be                                               576
 Sum of NELEC_ALPHA and NELEC_BETA is                                    576.000

 *** WARNING in qs_environment.F:1488 :: NELEC_ALPHA is not an integer, ***
 *** many features will not be supported.                               ***


 *** WARNING in qs_environment.F:1500 :: NELEC_BETA is not an integer, ***
 *** many features will not be supported.                              ***


 *** WARNING in qs_environment.F:1532 :: More ADDED_MOs requested for beta ***
 *** spin than available.                                                  ***


 *** WARNING in qs_environment.F:1548 :: More added MOs requested than     ***
 *** available. The full set of unoccupied MOs will be used. Use           ***
 *** 'ADDED_MOS -1' to always use all available MOs and to get rid of this ***
 *** warning.                                                              ***


 DFT| Spin unrestricted (spin-polarized) Kohn-Sham calculation               UKS
 DFT| Multiplicity                                                             1
 DFT| Number of spin states                                                    2
 DFT| Charge                                                                   0
 DFT| Self-interaction correction (SIC)                                       NO
 DFT| Cutoffs: density                                              1.000000E-10
 DFT|          gradient                                             1.000000E-10
 DFT|          tau                                                  1.000000E-10
 DFT|          cutoff_smoothing_range                               0.000000E+00
 DFT| XC density smoothing                                                  NONE
 DFT| XC derivatives                                                          PW

 FUNCTIONAL| PBE:
 FUNCTIONAL| J.P.Perdew, K.Burke, M.Ernzerhof, Phys. Rev. Letter, vol. 77, n 18,
 FUNCTIONAL|  pp. 3865-3868, (1996){spin polarized}                             

 vdW POTENTIAL|                                                   Pair Potential
 vdW POTENTIAL|          DFT-D3 (Version 3.1)
 vdW POTENTIAL|          Potential Form: S. Grimme et al, JCP 132: 154104 (2010)
 vdW POTENTIAL|          Zero Damping
 vdW POTENTIAL|          Cutoff Radius [Bohr]:                             20.00
 vdW POTENTIAL|          s6 Scaling Factor:                               1.0000
 vdW POTENTIAL|          sr6 Scaling Factor:                              1.2170
 vdW POTENTIAL|          s8 Scaling Factor:                               0.7220
 vdW POTENTIAL|          Cutoff for CN calculation:                   0.1000E-05

 QS| Method:                                                                 GPW
 QS| Density plane wave grid type                        NON-SPHERICAL FULLSPACE
 QS| Number of grid levels:                                                    5
 QS| Density cutoff [a.u.]:                                                300.0
 QS| Multi grid cutoff [a.u.]: 1) grid level                               300.0
 QS|                           2) grid level                               100.0
 QS|                           3) grid level                                33.3
 QS|                           4) grid level                                11.1
 QS|                           5) grid level                                 3.7
 QS| Grid level progression factor:                                          3.0
 QS| Relative density cutoff [a.u.]:                                        30.0
 QS| Interaction thresholds: eps_pgf_orb:                                1.0E-06
 QS|                         eps_filter_matrix:                          0.0E+00
 QS|                         eps_core_charge:                            1.0E-14
 QS|                         eps_rho_gspace:                             1.0E-12
 QS|                         eps_rho_rspace:                             1.0E-12
 QS|                         eps_gvg_rspace:                             1.0E-06
 QS|                         eps_ppl:                                    1.0E-02
 QS|                         eps_ppnl:                                   1.0E-08


 ATOMIC KIND INFORMATION

  1. Atomic kind: Ni_i                                  Number of atoms:      16

     Orbital Basis Set                                        DZVP-MOLOPT-SR-GTH

       Number of orbital shell sets:                                           1
       Number of orbital shells:                                               8
       Number of primitive Cartesian functions:                                6
       Number of Cartesian basis functions:                                   31
       Number of spherical basis functions:                                   26
       Norm type:                                                              2

       Normalised Cartesian orbitals:

                        Set   Shell   Orbital            Exponent    Coefficient

                          1       1    2s               10.077428      -0.684558
                                                         5.847736      -0.844524
                                                         2.494033       1.088856
                                                         0.988355       0.395503
                                                         0.344978       0.010224
                                                         0.099466      -0.003250

                          1       2    3s               10.077428       0.096747
                                                         5.847736       0.162504
                                                         2.494033      -0.297192
                                                         0.988355      -0.319752
                                                         0.344978       0.088318
                                                         0.099466       0.118587

                          1       3    4s               10.077428       0.036437
                                                         5.847736      -0.381480
                                                         2.494033       0.003759
                                                         0.988355      -1.048256
                                                         0.344978       0.855825
                                                         0.099466      -0.176350

                          1       4    3px              10.077428      -3.133913
                                                         5.847736       3.027656
                                                         2.494033       2.353227
                                                         0.988355       0.554184
                                                         0.344978       0.019462
                                                         0.099466      -0.000291
                          1       4    3py              10.077428      -3.133913
                                                         5.847736       3.027656
                                                         2.494033       2.353227
                                                         0.988355       0.554184
                                                         0.344978       0.019462
                                                         0.099466      -0.000291
                          1       4    3pz              10.077428      -3.133913
                                                         5.847736       3.027656
                                                         2.494033       2.353227
                                                         0.988355       0.554184
                                                         0.344978       0.019462
                                                         0.099466      -0.000291

                          1       5    4px              10.077428      -0.112729
                                                         5.847736      -0.114008
                                                         2.494033      -0.347303
                                                         0.988355      -0.110323
                                                         0.344978       0.154096
                                                         0.099466       0.058386
                          1       5    4py              10.077428      -0.112729
                                                         5.847736      -0.114008
                                                         2.494033      -0.347303
                                                         0.988355      -0.110323
                                                         0.344978       0.154096
                                                         0.099466       0.058386
                          1       5    4pz              10.077428      -0.112729
                                                         5.847736      -0.114008
                                                         2.494033      -0.347303
                                                         0.988355      -0.110323
                                                         0.344978       0.154096
                                                         0.099466       0.058386

                          1       6    4dx2             10.077428       8.232726
                                                         5.847736       9.105758
                                                         2.494033       2.849835
                                                         0.988355       0.554319
                                                         0.344978       0.067245
                                                         0.099466       0.001940
                          1       6    4dxy             10.077428      14.259500
                                                         5.847736      15.771636
                                                         2.494033       4.936060
                                                         0.988355       0.960109
                                                         0.344978       0.116472
                                                         0.099466       0.003360
                          1       6    4dxz             10.077428      14.259500
                                                         5.847736      15.771636
                                                         2.494033       4.936060
                                                         0.988355       0.960109
                                                         0.344978       0.116472
                                                         0.099466       0.003360
                          1       6    4dy2             10.077428       8.232726
                                                         5.847736       9.105758
                                                         2.494033       2.849835
                                                         0.988355       0.554319
                                                         0.344978       0.067245
                                                         0.099466       0.001940
                          1       6    4dyz             10.077428      14.259500
                                                         5.847736      15.771636
                                                         2.494033       4.936060
                                                         0.988355       0.960109
                                                         0.344978       0.116472
                                                         0.099466       0.003360
                          1       6    4dz2             10.077428       8.232726
                                                         5.847736       9.105758
                                                         2.494033       2.849835
                                                         0.988355       0.554319
                                                         0.344978       0.067245
                                                         0.099466       0.001940

                          1       7    5dx2             10.077428      -2.715373
                                                         5.847736      -4.020640
                                                         2.494033      -1.397569
                                                         0.988355      -0.076143
                                                         0.344978       0.033435
                                                         0.099466       0.026032
                          1       7    5dxy             10.077428      -4.703164
                                                         5.847736      -6.963952
                                                         2.494033      -2.420661
                                                         0.988355      -0.131883
                                                         0.344978       0.057911
                                                         0.099466       0.045088
                          1       7    5dxz             10.077428      -4.703164
                                                         5.847736      -6.963952
                                                         2.494033      -2.420661
                                                         0.988355      -0.131883
                                                         0.344978       0.057911
                                                         0.099466       0.045088
                          1       7    5dy2             10.077428      -2.715373
                                                         5.847736      -4.020640
                                                         2.494033      -1.397569
                                                         0.988355      -0.076143
                                                         0.344978       0.033435
                                                         0.099466       0.026032
                          1       7    5dyz             10.077428      -4.703164
                                                         5.847736      -6.963952
                                                         2.494033      -2.420661
                                                         0.988355      -0.131883
                                                         0.344978       0.057911
                                                         0.099466       0.045088
                          1       7    5dz2             10.077428      -2.715373
                                                         5.847736      -4.020640
                                                         2.494033      -1.397569
                                                         0.988355      -0.076143
                                                         0.344978       0.033435
                                                         0.099466       0.026032

                          1       8    5fx3             10.077428      -0.467694
                                                         5.847736       0.618100
                                                         2.494033       0.066069
                                                         0.988355       0.262898
                                                         0.344978       0.004720
                                                         0.099466       0.007748
                          1       8    5fx2y            10.077428      -1.045795
                                                         5.847736       1.382114
                                                         2.494033       0.147734
                                                         0.988355       0.587859
                                                         0.344978       0.010555
                                                         0.099466       0.017325
                          1       8    5fx2z            10.077428      -1.045795
                                                         5.847736       1.382114
                                                         2.494033       0.147734
                                                         0.988355       0.587859
                                                         0.344978       0.010555
                                                         0.099466       0.017325
                          1       8    5fxy2            10.077428      -1.045795
                                                         5.847736       1.382114
                                                         2.494033       0.147734
                                                         0.988355       0.587859
                                                         0.344978       0.010555
                                                         0.099466       0.017325
                          1       8    5fxyz            10.077428      -1.811371
                                                         5.847736       2.393892
                                                         2.494033       0.255883
                                                         0.988355       1.018201
                                                         0.344978       0.018282
                                                         0.099466       0.030008
                          1       8    5fxz2            10.077428      -1.045795
                                                         5.847736       1.382114
                                                         2.494033       0.147734
                                                         0.988355       0.587859
                                                         0.344978       0.010555
                                                         0.099466       0.017325
                          1       8    5fy3             10.077428      -0.467694
                                                         5.847736       0.618100
                                                         2.494033       0.066069
                                                         0.988355       0.262898
                                                         0.344978       0.004720
                                                         0.099466       0.007748
                          1       8    5fy2z            10.077428      -1.045795
                                                         5.847736       1.382114
                                                         2.494033       0.147734
                                                         0.988355       0.587859
                                                         0.344978       0.010555
                                                         0.099466       0.017325
                          1       8    5fyz2            10.077428      -1.045795
                                                         5.847736       1.382114
                                                         2.494033       0.147734
                                                         0.988355       0.587859
                                                         0.344978       0.010555
                                                         0.099466       0.017325
                          1       8    5fz3             10.077428      -0.467694
                                                         5.847736       0.618100
                                                         2.494033       0.066069
                                                         0.988355       0.262898
                                                         0.344978       0.004720
                                                         0.099466       0.007748

       Atomic covalent radius [Angstrom]:                                  1.150

       Atomic van der Waals radius [Angstrom]:                             1.630

     GTH Potential information for                                   GTH-PBE-q18

       Description:                       Goedecker-Teter-Hutter pseudopotential
                                           Goedecker et al., PRB 54, 1703 (1996)
                                          Hartwigsen et al., PRB 58, 3641 (1998)
                                                      Krack, TCA 114, 145 (2005)

       Gaussian exponent of the core charge distribution:               4.081633
       Electronic configuration (s p d ...):                           4   6   8

       Parameters of the local part of the GTH pseudopotential:

                          rloc        C1          C2          C3          C4
                        0.350000    2.102166    0.648484

       Parameters of the non-local part of the GTH pseudopotential:

                   l      r(l)      h(i,j,l)

                   0    0.261295    0.622658    9.970227
                                    9.970227  -12.871507
                   1    0.224253  -11.142708   12.429566
                                   12.429566  -14.706861
                   2    0.215348  -12.628146

  2. Atomic kind: Ni_b                                  Number of atoms:      16

     Orbital Basis Set                                        DZVP-MOLOPT-SR-GTH

       Number of orbital shell sets:                                           1
       Number of orbital shells:                                               8
       Number of primitive Cartesian functions:                                6
       Number of Cartesian basis functions:                                   31
       Number of spherical basis functions:                                   26
       Norm type:                                                              2

       Normalised Cartesian orbitals:

                        Set   Shell   Orbital            Exponent    Coefficient

                          1       1    2s               10.077428      -0.684558
                                                         5.847736      -0.844524
                                                         2.494033       1.088856
                                                         0.988355       0.395503
                                                         0.344978       0.010224
                                                         0.099466      -0.003250

                          1       2    3s               10.077428       0.096747
                                                         5.847736       0.162504
                                                         2.494033      -0.297192
                                                         0.988355      -0.319752
                                                         0.344978       0.088318
                                                         0.099466       0.118587

                          1       3    4s               10.077428       0.036437
                                                         5.847736      -0.381480
                                                         2.494033       0.003759
                                                         0.988355      -1.048256
                                                         0.344978       0.855825
                                                         0.099466      -0.176350

                          1       4    3px              10.077428      -3.133913
                                                         5.847736       3.027656
                                                         2.494033       2.353227
                                                         0.988355       0.554184
                                                         0.344978       0.019462
                                                         0.099466      -0.000291
                          1       4    3py              10.077428      -3.133913
                                                         5.847736       3.027656
                                                         2.494033       2.353227
                                                         0.988355       0.554184
                                                         0.344978       0.019462
                                                         0.099466      -0.000291
                          1       4    3pz              10.077428      -3.133913
                                                         5.847736       3.027656
                                                         2.494033       2.353227
                                                         0.988355       0.554184
                                                         0.344978       0.019462
                                                         0.099466      -0.000291

                          1       5    4px              10.077428      -0.112729
                                                         5.847736      -0.114008
                                                         2.494033      -0.347303
                                                         0.988355      -0.110323
                                                         0.344978       0.154096
                                                         0.099466       0.058386
                          1       5    4py              10.077428      -0.112729
                                                         5.847736      -0.114008
                                                         2.494033      -0.347303
                                                         0.988355      -0.110323
                                                         0.344978       0.154096
                                                         0.099466       0.058386
                          1       5    4pz              10.077428      -0.112729
                                                         5.847736      -0.114008
                                                         2.494033      -0.347303
                                                         0.988355      -0.110323
                                                         0.344978       0.154096
                                                         0.099466       0.058386

                          1       6    4dx2             10.077428       8.232726
                                                         5.847736       9.105758
                                                         2.494033       2.849835
                                                         0.988355       0.554319
                                                         0.344978       0.067245
                                                         0.099466       0.001940
                          1       6    4dxy             10.077428      14.259500
                                                         5.847736      15.771636
                                                         2.494033       4.936060
                                                         0.988355       0.960109
                                                         0.344978       0.116472
                                                         0.099466       0.003360
                          1       6    4dxz             10.077428      14.259500
                                                         5.847736      15.771636
                                                         2.494033       4.936060
                                                         0.988355       0.960109
                                                         0.344978       0.116472
                                                         0.099466       0.003360
                          1       6    4dy2             10.077428       8.232726
                                                         5.847736       9.105758
                                                         2.494033       2.849835
                                                         0.988355       0.554319
                                                         0.344978       0.067245
                                                         0.099466       0.001940
                          1       6    4dyz             10.077428      14.259500
                                                         5.847736      15.771636
                                                         2.494033       4.936060
                                                         0.988355       0.960109
                                                         0.344978       0.116472
                                                         0.099466       0.003360
                          1       6    4dz2             10.077428       8.232726
                                                         5.847736       9.105758
                                                         2.494033       2.849835
                                                         0.988355       0.554319
                                                         0.344978       0.067245
                                                         0.099466       0.001940

                          1       7    5dx2             10.077428      -2.715373
                                                         5.847736      -4.020640
                                                         2.494033      -1.397569
                                                         0.988355      -0.076143
                                                         0.344978       0.033435
                                                         0.099466       0.026032
                          1       7    5dxy             10.077428      -4.703164
                                                         5.847736      -6.963952
                                                         2.494033      -2.420661
                                                         0.988355      -0.131883
                                                         0.344978       0.057911
                                                         0.099466       0.045088
                          1       7    5dxz             10.077428      -4.703164
                                                         5.847736      -6.963952
                                                         2.494033      -2.420661
                                                         0.988355      -0.131883
                                                         0.344978       0.057911
                                                         0.099466       0.045088
                          1       7    5dy2             10.077428      -2.715373
                                                         5.847736      -4.020640
                                                         2.494033      -1.397569
                                                         0.988355      -0.076143
                                                         0.344978       0.033435
                                                         0.099466       0.026032
                          1       7    5dyz             10.077428      -4.703164
                                                         5.847736      -6.963952
                                                         2.494033      -2.420661
                                                         0.988355      -0.131883
                                                         0.344978       0.057911
                                                         0.099466       0.045088
                          1       7    5dz2             10.077428      -2.715373
                                                         5.847736      -4.020640
                                                         2.494033      -1.397569
                                                         0.988355      -0.076143
                                                         0.344978       0.033435
                                                         0.099466       0.026032

                          1       8    5fx3             10.077428      -0.467694
                                                         5.847736       0.618100
                                                         2.494033       0.066069
                                                         0.988355       0.262898
                                                         0.344978       0.004720
                                                         0.099466       0.007748
                          1       8    5fx2y            10.077428      -1.045795
                                                         5.847736       1.382114
                                                         2.494033       0.147734
                                                         0.988355       0.587859
                                                         0.344978       0.010555
                                                         0.099466       0.017325
                          1       8    5fx2z            10.077428      -1.045795
                                                         5.847736       1.382114
                                                         2.494033       0.147734
                                                         0.988355       0.587859
                                                         0.344978       0.010555
                                                         0.099466       0.017325
                          1       8    5fxy2            10.077428      -1.045795
                                                         5.847736       1.382114
                                                         2.494033       0.147734
                                                         0.988355       0.587859
                                                         0.344978       0.010555
                                                         0.099466       0.017325
                          1       8    5fxyz            10.077428      -1.811371
                                                         5.847736       2.393892
                                                         2.494033       0.255883
                                                         0.988355       1.018201
                                                         0.344978       0.018282
                                                         0.099466       0.030008
                          1       8    5fxz2            10.077428      -1.045795
                                                         5.847736       1.382114
                                                         2.494033       0.147734
                                                         0.988355       0.587859
                                                         0.344978       0.010555
                                                         0.099466       0.017325
                          1       8    5fy3             10.077428      -0.467694
                                                         5.847736       0.618100
                                                         2.494033       0.066069
                                                         0.988355       0.262898
                                                         0.344978       0.004720
                                                         0.099466       0.007748
                          1       8    5fy2z            10.077428      -1.045795
                                                         5.847736       1.382114
                                                         2.494033       0.147734
                                                         0.988355       0.587859
                                                         0.344978       0.010555
                                                         0.099466       0.017325
                          1       8    5fyz2            10.077428      -1.045795
                                                         5.847736       1.382114
                                                         2.494033       0.147734
                                                         0.988355       0.587859
                                                         0.344978       0.010555
                                                         0.099466       0.017325
                          1       8    5fz3             10.077428      -0.467694
                                                         5.847736       0.618100
                                                         2.494033       0.066069
                                                         0.988355       0.262898
                                                         0.344978       0.004720
                                                         0.099466       0.007748

       Atomic covalent radius [Angstrom]:                                  1.150

       Atomic van der Waals radius [Angstrom]:                             1.630

     GTH Potential information for                                   GTH-PBE-q18

       Description:                       Goedecker-Teter-Hutter pseudopotential
                                           Goedecker et al., PRB 54, 1703 (1996)
                                          Hartwigsen et al., PRB 58, 3641 (1998)
                                                      Krack, TCA 114, 145 (2005)

       Gaussian exponent of the core charge distribution:               4.081633
       Electronic configuration (s p d ...):                           4   6   8

       Parameters of the local part of the GTH pseudopotential:

                          rloc        C1          C2          C3          C4
                        0.350000    2.102166    0.648484

       Parameters of the non-local part of the GTH pseudopotential:

                   l      r(l)      h(i,j,l)

                   0    0.261295    0.622658    9.970227
                                    9.970227  -12.871507
                   1    0.224253  -11.142708   12.429566
                                   12.429566  -14.706861
                   2    0.215348  -12.628146


 MOLECULE KIND INFORMATION


 All atoms are their own molecule, skipping detailed information


 TOTAL NUMBERS AND MAXIMUM NUMBERS

  Total number of            - Atomic kinds:                                   2
                             - Atoms:                                         32
                             - Shell sets:                                    32
                             - Shells:                                       256
                             - Primitive Cartesian functions:                192
                             - Cartesian basis functions:                    992
                             - Spherical basis functions:                    832

  Maximum angular momentum of- Orbital basis functions:                        3
                             - Local part of the GTH pseudopotential:          2
                             - Non-local part of the GTH pseudopotential:      3


 MODULE QUICKSTEP: ATOMIC COORDINATES IN ANGSTROM

   Atom Kind Element         X             Y             Z       Z(eff)     Mass
      1    1 Ni   28      0.876298      0.876298      7.370500  18.0000  58.6934
      2    1 Ni   28      0.876298      4.382298      7.370500  18.0000  58.6934
      3    1 Ni   28      2.629298      2.629298      7.370500  18.0000  58.6934
      4    1 Ni   28      2.629298      6.135298      7.370500  18.0000  58.6934
      5    1 Ni   28      4.382298      0.876298      7.370500  18.0000  58.6934
      6    1 Ni   28      4.382298      4.382298      7.370500  18.0000  58.6934
      7    1 Ni   28      6.135298      2.629298      7.370500  18.0000  58.6934
      8    1 Ni   28      6.135298      6.135298      7.370500  18.0000  58.6934
      9    2 Ni   28      0.876298      2.629298      9.123500  18.0000  58.6934
     10    2 Ni   28      0.876298      6.135298      9.123500  18.0000  58.6934
     11    2 Ni   28      2.629298      0.876298      9.123500  18.0000  58.6934
     12    2 Ni   28      2.629298      4.382298      9.123500  18.0000  58.6934
     13    2 Ni   28      4.382298      2.629298      9.123500  18.0000  58.6934
     14    2 Ni   28      4.382298      6.135298      9.123500  18.0000  58.6934
     15    2 Ni   28      6.135298      0.876298      9.123500  18.0000  58.6934
     16    2 Ni   28      6.135298      4.382298      9.123500  18.0000  58.6934
     17    2 Ni   28      0.876298      0.876298     10.876500  18.0000  58.6934
     18    2 Ni   28      0.876298      4.382298     10.876500  18.0000  58.6934
     19    2 Ni   28      2.629298      2.629298     10.876500  18.0000  58.6934
     20    2 Ni   28      2.629298      6.135298     10.876500  18.0000  58.6934
     21    2 Ni   28      4.382298      0.876298     10.876500  18.0000  58.6934
     22    2 Ni   28      4.382298      4.382298     10.876500  18.0000  58.6934
     23    2 Ni   28      6.135298      2.629298     10.876500  18.0000  58.6934
     24    2 Ni   28      6.135298      6.135298     10.876500  18.0000  58.6934
     25    1 Ni   28      0.876298      2.629298     12.629500  18.0000  58.6934
     26    1 Ni   28      0.876298      6.135298     12.629500  18.0000  58.6934
     27    1 Ni   28      2.629298      0.876298     12.629500  18.0000  58.6934
     28    1 Ni   28      2.629298      4.382298     12.629500  18.0000  58.6934
     29    1 Ni   28      4.382298      2.629298     12.629500  18.0000  58.6934
     30    1 Ni   28      4.382298      6.135298     12.629500  18.0000  58.6934
     31    1 Ni   28      6.135298      0.876298     12.629500  18.0000  58.6934
     32    1 Ni   28      6.135298      4.382298     12.629500  18.0000  58.6934



 SCF PARAMETERS         Density guess:                                    ATOMIC
                        --------------------------------------------------------
                        max_scf:                                             500
                        max_scf_history:                                       0
                        max_diis:                                              4
                        --------------------------------------------------------
                        eps_scf:                                        1.00E-04
                        eps_scf_history:                                0.00E+00
                        eps_diis:                                       1.00E-01
                        eps_eigval:                                     1.00E-05
                        --------------------------------------------------------
                        level_shift [a.u.]:                             0.000000
                        added MOs                                       535  552
                        --------------------------------------------------------
                        Mixing method:                            BROYDEN_MIXING
                                                charge density mixing in g-space
                        --------------------------------------------------------
                        Smear method:                                FERMI_DIRAC
                        Electronic temperature [K]:                       2000.0
                        Electronic temperature [a.u.]:                  6.33E-03
                        Accuracy threshold:                             1.00E-10
                        --------------------------------------------------------
                        No outer SCF

 PW_GRID| Information for grid number                                          1
 PW_GRID| Grid distributed over                                   128 processors
 PW_GRID| Real space group dimensions                                     8   16
 PW_GRID| the grid is blocked:                                               YES
 PW_GRID| Cutoff [a.u.]                                                    300.0
 PW_GRID| spherical cutoff:                                                   NO
 PW_GRID|   Bounds   1            -54      53                Points:         108
 PW_GRID|   Bounds   2            -54      53                Points:         108
 PW_GRID|   Bounds   3           -150     149                Points:         300
 PW_GRID| Volume element (a.u.^3)  0.1896E-02     Volume (a.u.^3)      6635.2971
 PW_GRID| Grid span                                                    FULLSPACE
 PW_GRID|   Distribution                         Average         Max         Min
 PW_GRID|   G-Vectors                            27337.5       28728       25272
 PW_GRID|   G-Rays                                 253.1         266         234
 PW_GRID|   Real Space Points                    27337.5       28728       25272

 PW_GRID| Information for grid number                                          2
 PW_GRID| Number of the reference grid                                         1
 PW_GRID| Grid distributed over                                   128 processors
 PW_GRID| Real space group dimensions                                     8   16
 PW_GRID| the grid is blocked:                                                NO
 PW_GRID| Cutoff [a.u.]                                                    100.0
 PW_GRID| spherical cutoff:                                                   NO
 PW_GRID|   Bounds   1            -30      29                Points:          60
 PW_GRID|   Bounds   2            -30      29                Points:          60
 PW_GRID|   Bounds   3            -90      89                Points:         180
 PW_GRID| Volume element (a.u.^3)  0.1024E-01     Volume (a.u.^3)      6635.2971
 PW_GRID| Grid span                                                    FULLSPACE
 PW_GRID|   Distribution                         Average         Max         Min
 PW_GRID|   G-Vectors                             5062.5       15960           0
 PW_GRID|   G-Rays                                  84.4         266           0
 PW_GRID|   Real Space Points                     5062.5        5760        3780

 PW_GRID| Information for grid number                                          3
 PW_GRID| Number of the reference grid                                         1
 PW_GRID| Grid distributed over                                   128 processors
 PW_GRID| Real space group dimensions                                     8   16
 PW_GRID| the grid is blocked:                                                NO
 PW_GRID| Cutoff [a.u.]                                                     33.3
 PW_GRID| spherical cutoff:                                                   NO
 PW_GRID|   Bounds   1            -18      17                Points:          36
 PW_GRID|   Bounds   2            -18      17                Points:          36
 PW_GRID|   Bounds   3            -50      49                Points:         100
 PW_GRID| Volume element (a.u.^3)  0.5120E-01     Volume (a.u.^3)      6635.2971
 PW_GRID| Grid span                                                    FULLSPACE
 PW_GRID|   Distribution                         Average         Max         Min
 PW_GRID|   G-Vectors                             1012.5        9576           0
 PW_GRID|   G-Rays                                  28.1         266           0
 PW_GRID|   Real Space Points                     1012.5        1500         800

 PW_GRID| Information for grid number                                          4
 PW_GRID| Number of the reference grid                                         1
 PW_GRID| Grid distributed over                                   128 processors
 PW_GRID| Real space group dimensions                                     8   16
 PW_GRID| the grid is blocked:                                                NO
 PW_GRID| Cutoff [a.u.]                                                     11.1
 PW_GRID| spherical cutoff:                                                   NO
 PW_GRID|   Bounds   1            -10       9                Points:          20
 PW_GRID|   Bounds   2            -10       9                Points:          20
 PW_GRID|   Bounds   3            -30      29                Points:          60
 PW_GRID| Volume element (a.u.^3)  0.2765         Volume (a.u.^3)      6635.2971
 PW_GRID| Grid span                                                    FULLSPACE
 PW_GRID|   Distribution                         Average         Max         Min
 PW_GRID|   G-Vectors                              187.5        3800           0
 PW_GRID|   G-Rays                                   9.4         190           0
 PW_GRID|   Real Space Points                      187.5         360         120

 PW_GRID| Information for grid number                                          5
 PW_GRID| Number of the reference grid                                         1
 PW_GRID| Grid distributed over                                   128 processors
 PW_GRID| Real space group dimensions                                     8   16
 PW_GRID| the grid is blocked:                                                NO
 PW_GRID| Cutoff [a.u.]                                                      3.7
 PW_GRID| spherical cutoff:                                                   NO
 PW_GRID|   Bounds   1             -6       5                Points:          12
 PW_GRID|   Bounds   2             -6       5                Points:          12
 PW_GRID|   Bounds   3            -18      17                Points:          36
 PW_GRID| Volume element (a.u.^3)   1.280         Volume (a.u.^3)      6635.2971
 PW_GRID| Grid span                                                    FULLSPACE
 PW_GRID|   Distribution                         Average         Max         Min
 PW_GRID|   G-Vectors                               40.5        1296           0
 PW_GRID|   G-Rays                                   3.4         108           0
 PW_GRID|   Real Space Points                       40.5          72           0

 POISSON| Solver                                                        PERIODIC
 POISSON| Periodicity                                                        XYZ

 RS_GRID| Information for grid number                                          1
 RS_GRID|   Bounds   1            -54      53                Points:         108
 RS_GRID|   Bounds   2            -54      53                Points:         108
 RS_GRID|   Bounds   3           -150     149                Points:         300
 RS_GRID| Real space distribution over                                  8 groups
 RS_GRID| Real space distribution along direction                              2
 RS_GRID| Border size                                                         28
 RS_GRID| Real space distribution over                                 16 groups
 RS_GRID| Real space distribution along direction                              3
 RS_GRID| Border size                                                         28
 RS_GRID|   Distribution                         Average         Max         Min
 RS_GRID|   Planes                                  69.5          70          69
 RS_GRID|   Distribution                         Average         Max         Min
 RS_GRID|   Planes                                  74.8          75          74

 RS_GRID| Information for grid number                                          2
 RS_GRID|   Bounds   1            -30      29                Points:          60
 RS_GRID|   Bounds   2            -30      29                Points:          60
 RS_GRID|   Bounds   3            -90      89                Points:         180
 RS_GRID| Real space fully replicated
 RS_GRID| Group size                                                           1

 RS_GRID| Information for grid number                                          3
 RS_GRID|   Bounds   1            -18      17                Points:          36
 RS_GRID|   Bounds   2            -18      17                Points:          36
 RS_GRID|   Bounds   3            -50      49                Points:         100
 RS_GRID| Real space fully replicated
 RS_GRID| Group size                                                           1

 RS_GRID| Information for grid number                                          4
 RS_GRID|   Bounds   1            -10       9                Points:          20
 RS_GRID|   Bounds   2            -10       9                Points:          20
 RS_GRID|   Bounds   3            -30      29                Points:          60
 RS_GRID| Real space fully replicated
 RS_GRID| Group size                                                           1

 RS_GRID| Information for grid number                                          5
 RS_GRID|   Bounds   1             -6       5                Points:          12
 RS_GRID|   Bounds   2             -6       5                Points:          12
 RS_GRID|   Bounds   3            -18      17                Points:          36
 RS_GRID| Real space fully replicated
 RS_GRID| Group size                                                           1

 Spin 1

 Number of electrons:                                                        296.160
 Number of occupied orbitals:                                                297
 Number of molecular orbitals:                                               832

 Spin 2

 Number of electrons:                                                        279.840
 Number of occupied orbitals:                                                280
 Number of molecular orbitals:                                               832

 Number of orbital functions:                                                832
 Number of independent orbital functions:                                    832

 Extrapolation method: initial_guess

 Atomic guess: The first density matrix is obtained in terms of atomic orbitals
               and electronic configurations assigned to each atomic kind

 Guess for atomic kind: Ni_i

 Electronic structure
    Total number of core electrons                                         10.00
    Total number of valence electrons                                      18.00
    Total number of electrons                                              28.00
    Multiplicity                                                         doublet
    Alpha Electrons
    S   [  1.00  1.00] 1.00  1.00
    P   [  3.00] 3.00
    D      4.30
    Beta Electrons
    S   [  1.00  1.00] 1.00  1.00
    P   [  3.00] 3.00
    D      3.70


 *******************************************************************************
                  Iteration          Convergence                     Energy [au]
 *******************************************************************************
                          1         1.51708                    -167.066118163909
                          2         15.1863                    -156.630620063797
                          3         2.29518                    -168.318250074867
                          4        0.198051                    -168.608832938310
                          5        0.762142E-01                -168.611735578094
                          6        0.143308E-01                -168.612261389358
                          7        0.453828E-02                -168.612313512258
                          8        0.436836E-02                -168.612313369107
                          9        0.696306E-03                -168.612315351147
                         10        0.226261E-02                -168.612315025774
                         11        0.995757E-03                -168.612315268998
                         12        0.170432E-03                -168.612315393602
                         13        0.195344E-03                -168.612315392852
                         14        0.147467E-03                -168.612315396817
                         15        0.185080E-03                -168.612315392680
                         16        0.969041E-04                -168.612315398729
                         17        0.991109E-04                -168.612315398505
                         18        0.433236E-04                -168.612315399326
                         19        0.269198E-04                -168.612315399408
                         20        0.109432E-04                -168.612315399455
                         21        0.443439E-05                -168.612315399480
                         22        0.816741E-05                -168.612315399471
                         23        0.470984E-05                -168.612315399481
                         24        0.245833E-05                -168.612315399483
                         25        0.100766E-05                -168.612315399484
                         26        0.417991E-06                -168.612315399483

 Energy components [Hartree]           Total Energy ::         -168.612315399483
                                        Band Energy ::          -26.569179124340
                                     Kinetic Energy ::           97.305065650248
                                   Potential Energy ::         -265.917381049731
                                      Virial (-V/T) ::            2.732821557364
                                        Core Energy ::         -299.567011526383
                                          XC Energy ::          -16.225783039068
                                     Coulomb Energy ::          147.180479165968
                       Total Pseudopotential Energy ::         -396.958417944166
                       Local Pseudopotential Energy ::         -362.646534962999
                    Nonlocal Pseudopotential Energy ::          -34.311882981167
                                        Confinement ::            0.863407675347

 Orbital energies  State     Spin  L     Occupation   Energy[a.u.]    Energy[eV]

                       1    alpha  0          1.000      -4.170511   -113.485387
                       2    alpha  0          1.000      -0.181081     -4.927469
                       1     beta  0          1.000      -4.143060   -112.738394
                       2     beta  0          1.000      -0.176746     -4.809500

                       1    alpha  1          3.000      -2.576642    -70.114003
                       1     beta  1          3.000      -2.549934    -69.387228

                       1    alpha  2          4.300      -0.325251     -8.850518
                       1     beta  2          3.700      -0.302561     -8.233099


 Total Electron Density at R=0:                                         0.030426

 Guess for atomic kind: Ni_b

 Electronic structure
    Total number of core electrons                                         10.00
    Total number of valence electrons                                      18.00
    Total number of electrons                                              28.00
    Multiplicity                                                         singlet
    Alpha Electrons
    S   [  1.00  1.00] 1.00  1.00
    P   [  3.00] 3.00
    D      4.21
    Beta Electrons
    S   [  1.00  1.00] 1.00  1.00
    P   [  3.00] 3.00
    D      3.79


 *******************************************************************************
                  Iteration          Convergence                     Energy [au]
 *******************************************************************************
                          1         1.51669                    -167.064273181618
                          2         14.8176                    -156.613611054160
                          3         2.22403                    -168.316681634815
                          4        0.182027                    -168.607319475213
                          5        0.664876E-01                -168.610129603097
                          6        0.107057E-01                -168.610553418471
                          7        0.704739E-02                -168.610575285282
                          8        0.583044E-02                -168.610576111366
                          9        0.114340E-02                -168.610579450866
                         10        0.267788E-02                -168.610579045091
                         11        0.918378E-03                -168.610579514000
                         12        0.161217E-03                -168.610579618273
                         13        0.111195E-03                -168.610579617964
                         14        0.943797E-04                -168.610579619464
                         15        0.149057E-03                -168.610579616374
                         16        0.236413E-04                -168.610579620183
                         17        0.287836E-04                -168.610579620103
                         18        0.372318E-04                -168.610579620167
                         19        0.242156E-04                -168.610579620220
                         20        0.406601E-04                -168.610579620136
                         21        0.954165E-05                -168.610579620257
                         22        0.781907E-05                -168.610579620260
                         23        0.619053E-05                -168.610579620263
                         24        0.713374E-05                -168.610579620262
                         25        0.937306E-05                -168.610579620259
                         26        0.141389E-05                -168.610579620268
                         27        0.361882E-06                -168.610579620268

 Energy components [Hartree]           Total Energy ::         -168.610579620268
                                        Band Energy ::          -26.568345758080
                                     Kinetic Energy ::           97.302719186897
                                   Potential Energy ::         -265.913298807165
                                      Virial (-V/T) ::            2.732845505544
                                        Core Energy ::         -299.565639982305
                                          XC Energy ::          -16.223796623679
                                     Coulomb Energy ::          147.178856985716
                       Total Pseudopotential Energy ::         -396.954699680078
                       Local Pseudopotential Energy ::         -362.644046490013
                    Nonlocal Pseudopotential Energy ::          -34.310653190065
                                        Confinement ::            0.863405108764

 Orbital energies  State     Spin  L     Occupation   Energy[a.u.]    Energy[eV]

                       1    alpha  0          1.000      -4.166580   -113.378410
                       2    alpha  0          1.000      -0.180447     -4.910222
                       1     beta  0          1.000      -4.147364   -112.855515
                       2     beta  0          1.000      -0.177413     -4.827653

                       1    alpha  1          3.000      -2.572817    -70.009913
                       1     beta  1          3.000      -2.554121    -69.501173

                       1    alpha  2          4.210      -0.321991     -8.761807
                       1     beta  2          3.790      -0.306107     -8.329602


 Total Electron Density at R=0:                                         0.030431

 Spin 1
 Re-scaling the density matrix to get the right number of electrons for spin 1
                  # Electrons              Trace(P)               Scaling factor
                        296.160             296.160                        1.000

 Spin 2
 Re-scaling the density matrix to get the right number of electrons for spin 2
                  # Electrons              Trace(P)               Scaling factor
                        279.840             279.840                        1.000


 SCF WAVEFUNCTION OPTIMIZATION

  Step     Update method      Time    Convergence         Total energy    Change
  ------------------------------------------------------------------------------
     1 NoMix/Diag. 0.80E-01    1.5     0.87381101     -5426.4132018275 -5.43E+03
     2 Broy./Diag. 0.80E-01    1.5     0.01473965     -5315.7572548903  1.11E+02
     3 Broy./Diag. 0.80E-01    1.5     0.05282325     -5352.4837210857 -3.67E+01
     4 Broy./Diag. 0.80E-01    1.5     0.00270807     -5417.0440415562 -6.46E+01
     5 Broy./Diag. 0.80E-01    1.5     0.01879026     -5414.4113306086  2.63E+00
     6 Broy./Diag. 0.80E-01    1.5     0.00411467     -5418.2081070612 -3.80E+00
     7 Broy./Diag. 0.80E-01    1.5     0.00535527     -5416.5379300528  1.67E+00
     8 Broy./Diag. 0.80E-01    1.5     0.00708798     -5417.0487655161 -5.11E-01
     9 Broy./Diag. 0.80E-01    1.5     0.00154126     -5417.1850914542 -1.36E-01
    10 Broy./Diag. 0.80E-01    1.5     0.00255797     -5417.3728979291 -1.88E-01
    11 Broy./Diag. 0.80E-01    1.5     0.00083479     -5417.3435775545  2.93E-02
    12 Broy./Diag. 0.80E-01    1.5     0.00212192     -5417.5905096898 -2.47E-01
    13 Broy./Diag. 0.80E-01    1.5     0.00861574     -5417.5596631297  3.08E-02
    14 Broy./Diag. 0.80E-01    1.5     0.01500189     -5417.5715590499 -1.19E-02
[...]
   130 Broy./Diag. 0.80E-01    1.5     0.02621581     -5415.1325820503 -4.93E-01
   131 Broy./Diag. 0.80E-01    1.5     0.00744700     -5416.2903318695 -1.16E+00
   132 Broy./Diag. 0.80E-01    1.5     0.02150165     -5417.2520054091 -9.62E-01
   133 Broy./Diag. 0.80E-01    1.5     0.00695322     -5416.8944778427  3.58E-01
   134 Broy./Diag. 0.80E-01    1.5     0.00874817     -5417.0755599191 -1.81E-01
   135 Broy./Diag. 0.80E-01    1.5     0.01545032     -5417.5751466844 -5.00E-01
   136 Broy./Diag. 0.80E-01    1.5     0.01329826     -5417.1277698293  4.47E-01
   137 Broy./Diag. 0.80E-01    1.5     0.00932130     -5416.9177316660  2.10E-01
   138 Broy./Diag. 0.80E-01    1.5     0.00335270     -5417.3612533014 -4.44E-01
   139 Broy./Diag. 0.80E-01    1.5     0.01382847     -5417.8767968719 -5.16E-01
   140 Broy./Diag. 0.80E-01    1.5     0.00918308     -5417.5997829815  2.77E-01
   141 Broy./Diag. 0.80E-01    1.5     0.01192444     -5417.7064750657 -1.07E-01
   142 Broy./Diag. 0.80E-01    1.5     0.01891803     -5417.2501203666  4.56E-01
   143 Broy./Diag. 0.80E-01    1.5     0.01733697     -5415.7425946600  1.51E+00
   144 Broy./Diag. 0.80E-01    1.5     0.01699030     -5415.7510160918 -8.42E-03
   145 Broy./Diag. 0.80E-01    1.5     0.00643242     -5414.9844807949  7.67E-01
   146 Broy./Diag. 0.80E-01    1.5     0.02706821     -5415.5614036654 -5.77E-01
   147 Broy./Diag. 0.80E-01    1.5     0.01207357     -5418.0329301302 -2.47E+00
   148 Broy./Diag. 0.80E-01    1.5     0.01573677     -5416.6046262691  1.43E+00
   149 Broy./Diag. 0.80E-01    1.5     0.01128394     -5414.8580192175  1.75E+00
   150 Broy./Diag. 0.80E-01    1.5     0.01706738     -5415.1658284201 -3.08E-01
   151 Broy./Diag. 0.80E-01    1.5     0.01328772     -5414.7076544074  4.58E-01
   152 Broy./Diag. 0.80E-01    1.5     0.01114989     -5415.1761150977 -4.68E-01
   153 Broy./Diag. 0.80E-01    1.5     0.04715354     -5416.1544536739 -9.78E-01
   154 Broy./Diag. 0.80E-01    1.5     0.00989306     -5415.1794906003  9.75E-01
   155 Broy./Diag. 0.80E-01    1.5     0.01836407     -5414.7035233898  4.76E-01
   156 Broy./Diag. 0.80E-01    1.5     0.01607239     -5414.9950218264 -2.91E-01
   157 Broy./Diag. 0.80E-01    1.5     0.01083838     -5413.7260536892  1.27E+00
   158 Broy./Diag. 0.80E-01    1.5     0.02095567     -5414.5020803640 -7.76E-01
   159 Broy./Diag. 0.80E-01    1.5     0.01454319     -5413.9847122072  5.17E-01
   160 Broy./Diag. 0.80E-01    1.5     0.01617860     -5414.0268377872 -4.21E-02
   161 Broy./Diag. 0.80E-01    1.5     0.00395984     -5414.0293700530 -2.53E-03
   162 Broy./Diag. 0.80E-01    1.5     0.01342251     -5413.8710227888  1.58E-01
   163 Broy./Diag. 0.80E-01    1.5     0.02292757     -5413.6846630759  1.86E-01
   164 Broy./Diag. 0.80E-01    1.5     0.02279526     -5414.1915378320 -5.07E-01
   165 Broy./Diag. 0.80E-01    1.5     0.03506011     -5416.8047424692 -2.61E+00
   166 Broy./Diag. 0.80E-01    1.5     0.01470149     -5415.3638050149  1.44E+00
   167 Broy./Diag. 0.80E-01    1.5     0.02543625     -5415.1173710227  2.46E-01
   168 Broy./Diag. 0.80E-01    1.5     0.03217227     -5417.3470341420 -2.23E+00
   169 Broy./Diag. 0.80E-01    1.5     0.00661500     -5420.6211773728 -3.27E+00
   170 Broy./Diag. 0.80E-01    1.5     0.01087560     -5420.6444272485 -2.32E-02
   171 Broy./Diag. 0.80E-01    1.5     0.01367919     -5420.6073484452  3.71E-02
   172 Broy./Diag. 0.80E-01    1.5     0.01029566     -5419.7108721145  8.96E-01
   173 Broy./Diag. 0.80E-01    1.5     0.02975101     -5418.5307530997  1.18E+00
   174 Broy./Diag. 0.80E-01    1.5     0.00395253     -5415.8471782778  2.68E+00
   175 Broy./Diag. 0.80E-01    1.5     0.01191339     -5416.1899050332 -3.43E-01
   176 Broy./Diag. 0.80E-01    1.5     0.01603481     -5415.2387863718  9.51E-01
   177 Broy./Diag. 0.80E-01    1.5     0.01269822     -5416.4400193292 -1.20E+00
   178 Broy./Diag. 0.80E-01    1.5     0.01410950     -5416.8166251665 -3.77E-01
   179 Broy./Diag. 0.80E-01    1.5     0.02699281     -5416.8288645821 -1.22E-02
   180 Broy./Diag. 0.80E-01    1.5     0.00338895     -5416.8311515883 -2.29E-03
   181 Broy./Diag. 0.80E-01    1.5     0.00706860     -5416.6161316849  2.15E-01
   182 Broy./Diag. 0.80E-01    1.5     0.01434612     -5417.4777404884 -8.62E-01
   183 Broy./Diag. 0.80E-01    1.5     0.01125855     -5417.2562606947  2.21E-01
   184 Broy./Diag. 0.80E-01    1.5     0.00940907     -5416.0891796566  1.17E+00
   185 Broy./Diag. 0.80E-01    1.5     0.04669456     -5416.3464653643 -2.57E-01
   186 Broy./Diag. 0.80E-01    1.5     0.02092843     -5416.4465120494 -1.00E-01
   187 Broy./Diag. 0.80E-01    1.5     0.03722856     -5416.0861598898  3.60E-01
   188 Broy./Diag. 0.80E-01    1.5     0.03702181     -5415.5429920354  5.43E-01
   189 Broy./Diag. 0.80E-01    1.5     0.04833413     -5415.8506194872 -3.08E-01
   190 Broy./Diag. 0.80E-01    1.5     0.01306897     -5414.9816585226  8.69E-01
   191 Broy./Diag. 0.80E-01    1.5     0.02010604     -5415.6505107419 -6.69E-01
   192 Broy./Diag. 0.80E-01    1.5     0.00462309     -5416.8375434434 -1.19E+00
   193 Broy./Diag. 0.80E-01    1.5     0.08886409     -5418.3472295456 -1.51E+00
   194 Broy./Diag. 0.80E-01    1.5     0.04057150     -5420.9735731134 -2.63E+00
   195 Broy./Diag. 0.80E-01    1.5     0.02042655     -5420.3324082799  6.41E-01
   196 Broy./Diag. 0.80E-01    1.5     0.07172577     -5421.4439969010 -1.11E+00
   197 Broy./Diag. 0.80E-01    1.5     0.01598617     -5420.3186612562  1.13E+00
   198 Broy./Diag. 0.80E-01    1.5     0.02995730     -5418.9564580710  1.36E+00
   199 Broy./Diag. 0.80E-01    1.5     0.03852490     -5419.1963587441 -2.40E-01
   200 Broy./Diag. 0.80E-01    1.5     0.01324255     -5417.3899434713  1.81E+00
   201 Broy./Diag. 0.80E-01    1.5     0.08538736     -5418.5886165442 -1.20E+00
   202 Broy./Diag. 0.80E-01    1.5     0.02263287     -5416.8922593364  1.70E+00
   203 Broy./Diag. 0.80E-01    1.5     0.00327313     -5417.8609417130 -9.69E-01
   204 Broy./Diag. 0.80E-01    1.5     0.13283532     -5417.3089991805  5.52E-01
   205 Broy./Diag. 0.80E-01    1.5     0.04887267     -5424.4328531113 -7.12E+00
   206 Broy./Diag. 0.80E-01    1.5     0.00419358     -5420.0001760120  4.43E+00
   207 Broy./Diag. 0.80E-01    1.5     0.01263949     -5420.1394438459 -1.39E-01
   208 Broy./Diag. 0.80E-01    1.5     0.01136388     -5417.2436275449  2.90E+00
   209 Broy./Diag. 0.80E-01    1.5     0.02565830     -5416.7078677401  5.36E-01
   210 Broy./Diag. 0.80E-01    1.5     0.05802791     -5416.8309991380 -1.23E-01
   211 Broy./Diag. 0.80E-01    1.5     0.04527097     -5418.8223321736 -1.99E+00
   212 Broy./Diag. 0.80E-01    1.5     0.07964772     -5415.6095615607  3.21E+00
   213 Broy./Diag. 0.80E-01    1.5     0.08173346     -5419.7116578403 -4.10E+00
   214 Broy./Diag. 0.80E-01    1.5     0.15578247     -5426.4782898988 -6.77E+00
   215 Broy./Diag. 0.80E-01    1.5     0.09845665     -5416.5814076331  9.90E+00
   216 Broy./Diag. 0.80E-01    1.5     0.04166411     -5418.0098677303 -1.43E+00
   217 Broy./Diag. 0.80E-01    1.5     0.08330827     -5420.7252109585 -2.72E+00
   218 Broy./Diag. 0.80E-01    1.5     0.03498341     -5425.0481270138 -4.32E+00
   219 Broy./Diag. 0.80E-01    1.5     0.06477833     -5424.1239497595  9.24E-01
   220 Broy./Diag. 0.80E-01    1.5     0.04736439     -5424.4605977409 -3.37E-01
   221 Broy./Diag. 0.80E-01    1.5     0.06022969     -5426.5993231355 -2.14E+00
   222 Broy./Diag. 0.80E-01    1.5     0.00486377     -5427.4007696430 -8.01E-01
   223 Broy./Diag. 0.80E-01    1.5     0.02883048     -5427.4757848767 -7.50E-02
   224 Broy./Diag. 0.80E-01    1.5     0.00469768     -5427.4193305124  5.65E-02
   225 Broy./Diag. 0.80E-01    1.5     0.03511020     -5427.5090431361 -8.97E-02
   226 Broy./Diag. 0.80E-01    1.5     0.04209119     -5426.5812580768  9.28E-01
   227 Broy./Diag. 0.80E-01    1.5     0.04233434     -5415.1021064509  1.15E+01
   228 Broy./Diag. 0.80E-01    1.5     0.04482749     -5416.8041343841 -1.70E+00
   229 Broy./Diag. 0.80E-01    1.5     0.02145054     -5419.2395053290 -2.44E+00
   230 Broy./Diag. 0.80E-01    1.5     0.02184552     -5418.7650385278  4.74E-01
   231 Broy./Diag. 0.80E-01    1.5     0.03005968     -5419.3329322814 -5.68E-01
   232 Broy./Diag. 0.80E-01    1.5     0.01092583     -5418.3534962549  9.79E-01
   233 Broy./Diag. 0.80E-01    1.5     0.01516204     -5417.0626433316  1.29E+00
   234 Broy./Diag. 0.80E-01    1.5     0.03695829     -5419.0785255766 -2.02E+00
   235 Broy./Diag. 0.80E-01    1.5     0.03347364     -5434.6584574982 -1.56E+01
   236 Broy./Diag. 0.80E-01    1.5     0.07152173     -5435.6382880771 -9.80E-01
   237 Broy./Diag. 0.80E-01    1.5     0.04047240     -5434.1231247721  1.52E+00
   238 Broy./Diag. 0.80E-01    1.5     0.12483172     -5437.8192958484 -3.70E+00
   239 Broy./Diag. 0.80E-01    1.5     0.04282063     -5421.9595683240  1.59E+01
   240 Broy./Diag. 0.80E-01    1.5     0.04590150     -5416.3503021072  5.61E+00
   241 Broy./Diag. 0.80E-01    1.5     0.07611722     -5409.9598928175  6.39E+00
   242 Broy./Diag. 0.80E-01    1.5     0.11087791     -5402.3170406965  7.64E+00
   243 Broy./Diag. 0.80E-01    1.5     0.06878880     -5398.2267764713  4.09E+00
   244 Broy./Diag. 0.80E-01    1.5     0.02636185     -5398.3152779136 -8.85E-02
   245 Broy./Diag. 0.80E-01    1.5     0.01994046     -5399.4457845951 -1.13E+00
   246 Broy./Diag. 0.80E-01    1.5     0.04499233     -5404.6949578094 -5.25E+00
   247 Broy./Diag. 0.80E-01    1.5     0.05915554     -5415.8469610436 -1.12E+01
   248 Broy./Diag. 0.80E-01    1.5     0.05222963     -5422.8021028299 -6.96E+00
   249 Broy./Diag. 0.80E-01    1.5     0.00629200     -5416.5408563391  6.26E+00
   250 Broy./Diag. 0.80E-01    1.5     0.04633243     -5417.9518611253 -1.41E+00
   251 Broy./Diag. 0.80E-01    1.5     0.12051101     -5416.5509856656  1.40E+00
   252 Broy./Diag. 0.80E-01    1.5     0.10340138     -5410.0286576534  6.52E+00
   253 Broy./Diag. 0.80E-01    1.5     0.06810435     -5419.2571747649 -9.23E+00
   254 Broy./Diag. 0.80E-01    1.5     0.05719686     -5417.9605833648  1.30E+00
   255 Broy./Diag. 0.80E-01    1.5     0.02178643     -5419.6018676382 -1.64E+00
   256 Broy./Diag. 0.80E-01    1.5     0.02296765     -5420.1893928118 -5.88E-01
   257 Broy./Diag. 0.80E-01    1.5     0.00841725     -5420.4759315357 -2.87E-01
   258 Broy./Diag. 0.80E-01    1.5     0.09207091     -5421.7539144184 -1.28E+00
   259 Broy./Diag. 0.80E-01    1.5     0.11337554     -5421.9937112883 -2.40E-01
   260 Broy./Diag. 0.80E-01    1.5     0.10417287     -5421.4388966897  5.55E-01
   261 Broy./Diag. 0.80E-01    1.5     0.06728371     -5420.6189239398  8.20E-01
   262 Broy./Diag. 0.80E-01    1.5     0.01794065     -5419.1885944204  1.43E+00
   263 Broy./Diag. 0.80E-01    1.5     0.01941409     -5418.6853006438  5.03E-01
   264 Broy./Diag. 0.80E-01    1.5     0.08587313     -5417.9928747808  6.92E-01
   265 Broy./Diag. 0.80E-01    1.5     0.05610689     -5418.3973049297 -4.04E-01
   266 Broy./Diag. 0.80E-01    1.5     0.07251329     -5418.4437725520 -4.65E-02
   267 Broy./Diag. 0.80E-01    1.5     0.05911581     -5418.4034881008  4.03E-02
   268 Broy./Diag. 0.80E-01    1.5     0.03095811     -5417.9882911771  4.15E-01
   269 Broy./Diag. 0.80E-01    1.5     0.03333170     -5417.6567374397  3.32E-01
   270 Broy./Diag. 0.80E-01    1.5     0.03073459     -5417.7056907379 -4.90E-02
   271 Broy./Diag. 0.80E-01    1.5     0.04122326     -5418.2740306188 -5.68E-01
   272 Broy./Diag. 0.80E-01    1.5     0.06527249     -5418.5699953094 -2.96E-01
   273 Broy./Diag. 0.80E-01    1.5     0.08755224     -5418.4472319194  1.23E-01
   274 Broy./Diag. 0.80E-01    1.5     0.17999539     -5418.1336763935  3.14E-01
   275 Broy./Diag. 0.80E-01    1.5     0.05940265     -5417.7408187072  3.93E-01
   276 Broy./Diag. 0.80E-01    1.5     0.08526570     -5417.2922644895  4.49E-01
   277 Broy./Diag. 0.80E-01    1.5     0.08839246     -5416.6651231535  6.27E-01
   278 Broy./Diag. 0.80E-01    1.5     0.10402595     -5418.0534564626 -1.39E+00
   279 Broy./Diag. 0.80E-01    1.5     0.12708545     -5415.2075893070  2.85E+00
   280 Broy./Diag. 0.80E-01    1.5     0.33414004     -5418.6237084056 -3.42E+00
   281 Broy./Diag. 0.80E-01    1.5     0.26447688     -5418.9560310362 -3.32E-01
   282 Broy./Diag. 0.80E-01    1.5     0.03046129     -5417.0475854249  1.91E+00
   283 Broy./Diag. 0.80E-01    1.5     0.25473157     -5417.8316310718 -7.84E-01
   284 Broy./Diag. 0.80E-01    1.5     0.23279826     -5413.3266190716  4.51E+00
   285 Broy./Diag. 0.80E-01    1.5     0.06592097     -5418.0125387758 -4.69E+00
   286 Broy./Diag. 0.80E-01    1.5     0.11843770     -5418.0117409003  7.98E-04
   287 Broy./Diag. 0.80E-01    1.5     0.09808716     -5418.4535799524 -4.42E-01
   288 Broy./Diag. 0.80E-01    1.5     0.16267300     -5415.7548187721  2.70E+00
   289 Broy./Diag. 0.80E-01    1.5     0.12660117     -5418.9987708254 -3.24E+00
   290 Broy./Diag. 0.80E-01    1.5     0.01282366     -5415.6919443307  3.31E+00
   291 Broy./Diag. 0.80E-01    1.5     0.48453327     -5416.0042255644 -3.12E-01
   292 Broy./Diag. 0.80E-01    1.5     0.48922356     -5410.4571958951  5.55E+00
   293 Broy./Diag. 0.80E-01    1.5     0.03149904     -5416.7927152422 -6.34E+00
   294 Broy./Diag. 0.80E-01    1.5     0.04904930     -5413.9721538851  2.82E+00
   295 Broy./Diag. 0.80E-01    1.5     0.06674970     -5413.4412589017  5.31E-01
   296 Broy./Diag. 0.80E-01    1.5     0.03416158     -5415.1827970480 -1.74E+00
   297 Broy./Diag. 0.80E-01    1.5     0.06138291     -5411.7713959421  3.41E+00
   298 Broy./Diag. 0.80E-01    1.5     0.05055397     -5410.6435592637  1.13E+00
   299 Broy./Diag. 0.80E-01    1.5     0.09267792     -5409.5619685724  1.08E+00
   300 Broy./Diag. 0.80E-01    1.5     0.04474085     -5419.0596275661 -9.50E+00
   301 Broy./Diag. 0.80E-01    1.5     0.15138936     -5418.9225683090  1.37E-01
   302 Broy./Diag. 0.80E-01    1.5     0.14864681     -5418.6217887775  3.01E-01
   303 Broy./Diag. 0.80E-01    1.5     0.05969792     -5418.8747889085 -2.53E-01
   304 Broy./Diag. 0.80E-01    1.5     0.02430145     -5419.0776138974 -2.03E-01
   305 Broy./Diag. 0.80E-01    1.5     0.01857170     -5417.5334962236  1.54E+00
   306 Broy./Diag. 0.80E-01    1.5     0.04319471     -5416.6365458541  8.97E-01
   307 Broy./Diag. 0.80E-01    1.5     0.02804896     -5419.8647099028 -3.23E+00
   308 Broy./Diag. 0.80E-01    1.5     0.03577294     -5417.9666836700  1.90E+00
   309 Broy./Diag. 0.80E-01    1.5     0.07504015     -5419.4207549749 -1.45E+00
   310 Broy./Diag. 0.80E-01    1.5     0.19700079     -5420.2100579359 -7.89E-01
   311 Broy./Diag. 0.80E-01    1.5     0.32461734     -5400.5565910021  1.97E+01
   312 Broy./Diag. 0.80E-01    1.5     0.41923525     -5401.9475240806 -1.39E+00
   313 Broy./Diag. 0.80E-01    1.5     0.18145229     -5418.7060629401 -1.68E+01
   314 Broy./Diag. 0.80E-01    1.5     0.17866382     -5416.3156749089  2.39E+00
   315 Broy./Diag. 0.80E-01    1.5     0.05555035     -5409.3414172045  6.97E+00
   316 Broy./Diag. 0.80E-01    1.5     0.07874673     -5405.2407108128  4.10E+00
   317 Broy./Diag. 0.80E-01    1.5     0.15786249     -5403.8798678392  1.36E+00
   318 Broy./Diag. 0.80E-01    1.5     0.08122176     -5417.2093307648 -1.33E+01
   319 Broy./Diag. 0.80E-01    1.5     0.10100201     -5414.2493481712  2.96E+00
   320 Broy./Diag. 0.80E-01    1.5     0.11562146     -5412.5669270191  1.68E+00
   321 Broy./Diag. 0.80E-01    1.5     0.18609710     -5418.0840357838 -5.52E+00
   322 Broy./Diag. 0.80E-01    1.5     0.06345322     -5415.9979616559  2.09E+00
   323 Broy./Diag. 0.80E-01    1.5     0.13640637     -5416.7792443867 -7.81E-01
   324 Broy./Diag. 0.80E-01    1.5     0.12273856     -5407.8358837772  8.94E+00
   325 Broy./Diag. 0.80E-01    1.5     0.04624629     -5408.3855907926 -5.50E-01
   326 Broy./Diag. 0.80E-01    1.5     0.24427619     -5410.0016040972 -1.62E+00
   327 Broy./Diag. 0.80E-01    1.5     0.20003308     -5407.6544908055  2.35E+00
   328 Broy./Diag. 0.80E-01    1.5     0.15245263     -5408.4941497105 -8.40E-01
   329 Broy./Diag. 0.80E-01    1.5     0.07463849     -5416.4819054708 -7.99E+00
   330 Broy./Diag. 0.80E-01    1.5     0.14267236     -5417.2407770947 -7.59E-01
   331 Broy./Diag. 0.80E-01    1.5     0.14804013     -5415.2360982581  2.00E+00
   332 Broy./Diag. 0.80E-01    1.5     0.08469762     -5417.8941331596 -2.66E+00
   333 Broy./Diag. 0.80E-01    1.5     0.06735958     -5412.1883448513  5.71E+00
   334 Broy./Diag. 0.80E-01    1.5     0.23379726     -5415.6846492988 -3.50E+00
   335 Broy./Diag. 0.80E-01    1.5     0.27952627     -5417.5188320985 -1.83E+00
   336 Broy./Diag. 0.80E-01    1.5     0.13322349     -5418.1353429600 -6.17E-01
   337 Broy./Diag. 0.80E-01    1.5     0.24879592     -5418.5833753432 -4.48E-01
   338 Broy./Diag. 0.80E-01    1.5     0.39624744     -5418.2994979118  2.84E-01
   339 Broy./Diag. 0.80E-01    1.5     0.13225780     -5416.4243651892  1.88E+00
   340 Broy./Diag. 0.80E-01    1.5     0.08125917     -5416.6535682766 -2.29E-01
   341 Broy./Diag. 0.80E-01    1.5     0.03397400     -5418.3528727391 -1.70E+00
   342 Broy./Diag. 0.80E-01    1.5     0.05508043     -5418.6386084327 -2.86E-01
   343 Broy./Diag. 0.80E-01    1.5     0.06879161     -5419.5166194343 -8.78E-01
   344 Broy./Diag. 0.80E-01    1.5     0.05757608     -5420.0478002171 -5.31E-01
   345 Broy./Diag. 0.80E-01    1.5     0.09304704     -5419.5606940854  4.87E-01
   346 Broy./Diag. 0.80E-01    1.5     0.24996543     -5420.6792128622 -1.12E+00
   347 Broy./Diag. 0.80E-01    1.5     0.19415105     -5416.3220893673  4.36E+00
   348 Broy./Diag. 0.80E-01    1.5     0.18792249     -5408.0358226140  8.29E+00
   349 Broy./Diag. 0.80E-01    1.5     0.29225464     -5409.3590577602 -1.32E+00
   350 Broy./Diag. 0.80E-01    1.5     0.04456006     -5419.9906796442 -1.06E+01
   351 Broy./Diag. 0.80E-01    1.5     0.04318727     -5421.5601883364 -1.57E+00
   352 Broy./Diag. 0.80E-01    1.5     0.18561350     -5422.2114302512 -6.51E-01
   353 Broy./Diag. 0.80E-01    1.5     0.05571904     -5413.6415133846  8.57E+00
   354 Broy./Diag. 0.80E-01    1.5     0.05188360     -5410.8329167398  2.81E+00
   355 Broy./Diag. 0.80E-01    1.5     0.26580144     -5411.5251641207 -6.92E-01
   356 Broy./Diag. 0.80E-01    1.5     0.13111265     -5408.6316553293  2.89E+00
   357 Broy./Diag. 0.80E-01    1.5     0.17490342     -5410.3305684851 -1.70E+00
   358 Broy./Diag. 0.80E-01    1.5     0.35276217     -5410.2137540215  1.17E-01
   359 Broy./Diag. 0.80E-01    1.5     0.14209391     -5414.9756443793 -4.76E+00
   360 Broy./Diag. 0.80E-01    1.5     0.05383965     -5417.6891713684 -2.71E+00
   361 Broy./Diag. 0.80E-01    1.5     0.04139962     -5416.3149430295  1.37E+00
   362 Broy./Diag. 0.80E-01    1.5     0.03746557     -5416.0804664903  2.34E-01
   363 Broy./Diag. 0.80E-01    1.5     0.05925597     -5416.4107748178 -3.30E-01
   364 Broy./Diag. 0.80E-01    1.5     0.25086588     -5415.2119548373  1.20E+00
   365 Broy./Diag. 0.80E-01    1.5     0.15207680     -5418.0890545330 -2.88E+00
   366 Broy./Diag. 0.80E-01    1.5     0.19101963     -5416.3414189636  1.75E+00
   367 Broy./Diag. 0.80E-01    1.5     0.02699511     -5417.8179651157 -1.48E+00
   368 Broy./Diag. 0.80E-01    1.5     0.31449123     -5414.2018466955  3.62E+00
   369 Broy./Diag. 0.80E-01    1.5     0.04513641     -5413.5084118035  6.93E-01
   370 Broy./Diag. 0.80E-01    1.5     0.07821581     -5413.2669002894  2.42E-01
   371 Broy./Diag. 0.80E-01    1.5     0.04928578     -5413.5353999064 -2.68E-01
   372 Broy./Diag. 0.80E-01    1.5     0.32602746     -5414.3545182594 -8.19E-01
   373 Broy./Diag. 0.80E-01    1.5     0.32725972     -5408.9562922983  5.40E+00
   374 Broy./Diag. 0.80E-01    1.5     0.14245633     -5404.4295364439  4.53E+00
   375 Broy./Diag. 0.80E-01    1.5     0.29180497     -5404.7897912559 -3.60E-01
