 DBCSR| CPU Multiplication driver                                           XSMM (U)
 DBCSR| Multrec recursion limit                                              512 (U)
 DBCSR| Multiplication stack size                                           1000 (D)
 DBCSR| Maximum elements for images                                    UNLIMITED (U)
 DBCSR| Multiplicative factor virtual images                                   1 (U)
 DBCSR| Use multiplication densification                                       T (D)
 DBCSR| Multiplication size stacks                                             3 (U)
 DBCSR| Use memory pool for CPU allocation                                     F (U)
 DBCSR| Number of 3D layers                                               SINGLE (U)
 DBCSR| Use MPI memory allocation                                              F (U)
 DBCSR| Use RMA algorithm                                                      F (U)
 DBCSR| Use Communication thread                                               T (U)
 DBCSR| Communication thread load                                             87 (D)
 DBCSR| MPI: My process id                                                     0
 DBCSR| MPI: Number of processes                                             128
 DBCSR| OMP: Current number of threads                                         1
 DBCSR| OMP: Max number of threads                                             1
 DBCSR| Split modifier for TAS multiplication algorithm                  1.0E+00 (U)


  **** **** ******  **  PROGRAM STARTED AT               2023-02-14 15:38:25.821
 ***** ** ***  *** **   PROGRAM STARTED ON                             nid001185
 **    ****   ******    PROGRAM STARTED BY                                cahart
 ***** **    ** ** **   PROGRAM PROCESS ID                                177909
  **** **  *******  **  PROGRAM STARTED IN /mnt/lustre/a2fs-work2/work/e05/e05/c
                                           ahart/postdoc/masters/ni/archer2/slab
                                           /optimise/alpha-beta/scf_1e-4_mos-100
                                           0_temp-2000_spin-0.7-0.5_periodic-xyz
                                           /search/1.0E-2_1.0E-2

 CP2K| version string:                 CP2K version 2023.1 (Development Version)
 CP2K| source code revision number:                                  git:964cd58
 CP2K| cp2kflags: omp libint fftw3 libxc elpa parallel scalapack xsmm plumed2 mk
 CP2K|            l
 CP2K| is freely available from                            https://www.cp2k.org/
 CP2K| Program compiled at                          Mon 13 Feb 17:05:14 GMT 2023
 CP2K| Program compiled on                                                  ln01
 CP2K| Program compiled for                                              ARCHER2
 CP2K| Data directory path    /work/e05/e05/cahart/cp2k/cp2k-2023.1/cp2k-2023.1-
 CP2K| Input file name                                                  cp2k.inp

 GLOBAL| Force Environment number                                              1
 GLOBAL| Basis set file name                                        BASIS_MOLOPT
 GLOBAL| Potential file name                                      GTH_POTENTIALS
 GLOBAL| MM Potential file name                                     MM_POTENTIAL
 GLOBAL| Coordinate file name                                      __STD_INPUT__
 GLOBAL| Method name                                                        CP2K
 GLOBAL| Project name                                                    Ni_bulk
 GLOBAL| Run type                                                         ENERGY
 GLOBAL| FFT library                                                       FFTW3
 GLOBAL| Diagonalization library                                            ELPA
 GLOBAL| DGEMM library                                                      BLAS
 GLOBAL| Minimum number of eigenvectors for ELPA usage                        16
 GLOBAL| Orthonormality check for eigenvectors                          DISABLED
 GLOBAL| Matrix multiplication library                                 ScaLAPACK
 GLOBAL| All-to-all communication in single precision                          F
 GLOBAL| FFTs using library dependent lengths                                  F
 GLOBAL| Grid backend                                                       AUTO
 GLOBAL| Global print level                                               MEDIUM
 GLOBAL| MPI I/O enabled                                                       T
 GLOBAL| Total number of message passing processes                           128
 GLOBAL| Number of threads for this process                                    1
 GLOBAL| This output is from process                                           0
 GLOBAL| Stack size for threads created by OpenMP (OMP_STACKSIZE)        default
 GLOBAL| CPU model name                          AMD EPYC 7742 64-Core Processor
 GLOBAL| CPUID                                                              1002

 MEMORY| system memory details [Kb]
 MEMORY|                        rank 0           min           max       average
 MEMORY| MemTotal            263528084     263528084     263528084     263528084
 MEMORY| MemFree             238130236     238130236     238130236     238130236
 MEMORY| Buffers                 32204         32204         32204         32204
 MEMORY| Cached                1064320       1064320       1064320       1064320
 MEMORY| Slab                  1694880       1694880       1694880       1694880
 MEMORY| SReclaimable           134280        134280        134280        134280
 MEMORY| MemLikelyFree       239361040     239361040     239361040     239361040


 *** Fundamental physical constants (SI units) ***

 *** Literature: B. J. Mohr and B. N. Taylor,
 ***             CODATA recommended values of the fundamental physical
 ***             constants: 2006, Web Version 5.1
 ***             http://physics.nist.gov/constants

 Speed of light in vacuum [m/s]                             2.99792458000000E+08
 Magnetic constant or permeability of vacuum [N/A**2]       1.25663706143592E-06
 Electric constant or permittivity of vacuum [F/m]          8.85418781762039E-12
 Planck constant (h) [J*s]                                  6.62606896000000E-34
 Planck constant (h-bar) [J*s]                              1.05457162825177E-34
 Elementary charge [C]                                      1.60217648700000E-19
 Electron mass [kg]                                         9.10938215000000E-31
 Electron g factor [ ]                                     -2.00231930436220E+00
 Proton mass [kg]                                           1.67262163700000E-27
 Fine-structure constant                                    7.29735253760000E-03
 Rydberg constant [1/m]                                     1.09737315685270E+07
 Avogadro constant [1/mol]                                  6.02214179000000E+23
 Boltzmann constant [J/K]                                   1.38065040000000E-23
 Atomic mass unit [kg]                                      1.66053878200000E-27
 Bohr radius [m]                                            5.29177208590000E-11

 *** Conversion factors ***

 [u] -> [a.u.]                                              1.82288848426455E+03
 [Angstrom] -> [Bohr] = [a.u.]                              1.88972613288564E+00
 [a.u.] = [Bohr] -> [Angstrom]                              5.29177208590000E-01
 [a.u.] -> [s]                                              2.41888432650478E-17
 [a.u.] -> [fs]                                             2.41888432650478E-02
 [a.u.] -> [J]                                              4.35974393937059E-18
 [a.u.] -> [N]                                              8.23872205491840E-08
 [a.u.] -> [K]                                              3.15774647902944E+05
 [a.u.] -> [kJ/mol]                                         2.62549961709828E+03
 [a.u.] -> [kcal/mol]                                       6.27509468713739E+02
 [a.u.] -> [Pa]                                             2.94210107994716E+13
 [a.u.] -> [bar]                                            2.94210107994716E+08
 [a.u.] -> [atm]                                            2.90362800883016E+08
 [a.u.] -> [eV]                                             2.72113838565563E+01
 [a.u.] -> [Hz]                                             6.57968392072181E+15
 [a.u.] -> [1/cm] (wave numbers)                            2.19474631370540E+05
 [a.u./Bohr**2] -> [1/cm]                                   5.14048714338585E+03
 

 CELL_TOP| Volume [angstrom^3]:                                       983.249569
 CELL_TOP| Vector a [angstrom     7.012     0.000     0.000   |a| =     7.011596
 CELL_TOP| Vector b [angstrom     0.000     7.012     0.000   |b| =     7.011596
 CELL_TOP| Vector c [angstrom     0.000     0.000    20.000   |c| =    20.000000
 CELL_TOP| Angle (b,c), alpha [degree]:                                90.000000
 CELL_TOP| Angle (a,c), beta  [degree]:                                90.000000
 CELL_TOP| Angle (a,b), gamma [degree]:                                90.000000
 CELL_TOP| Numerically orthorhombic:                                         YES
 CELL_TOP| Periodicity                                                       XYZ

 GENERATE|  Preliminary Number of Bonds generated:                             0
 GENERATE|  Achieved consistency in connectivity generation.

 CELL| Volume [angstrom^3]:                                           983.249569
 CELL| Vector a [angstrom]:       7.012     0.000     0.000   |a| =     7.011596
 CELL| Vector b [angstrom]:       0.000     7.012     0.000   |b| =     7.011596
 CELL| Vector c [angstrom]:       0.000     0.000    20.000   |c| =    20.000000
 CELL| Angle (b,c), alpha [degree]:                                    90.000000
 CELL| Angle (a,c), beta  [degree]:                                    90.000000
 CELL| Angle (a,b), gamma [degree]:                                    90.000000
 CELL| Numerically orthorhombic:                                             YES
 CELL| Periodicity                                                           XYZ

 CELL_REF| Volume [angstrom^3]:                                       983.249569
 CELL_REF| Vector a [angstrom     7.012     0.000     0.000   |a| =     7.011596
 CELL_REF| Vector b [angstrom     0.000     7.012     0.000   |b| =     7.011596
 CELL_REF| Vector c [angstrom     0.000     0.000    20.000   |c| =    20.000000
 CELL_REF| Angle (b,c), alpha [degree]:                                90.000000
 CELL_REF| Angle (a,c), beta  [degree]:                                90.000000
 CELL_REF| Angle (a,b), gamma [degree]:                                90.000000
 CELL_REF| Numerically orthorhombic:                                         YES
 CELL_REF| Periodicity                                                       XYZ

 *** WARNING in cryssym.F:165 :: Symmetry library SPGLIB not available ***


 *******************************************************************************
                                    Kpoints
 *******************************************************************************
 BRILLOUIN| K-point scheme                                        Monkhorst-Pack
 BRILLOUIN| K-Point grid                                             4    4    1
 BRILLOUIN| Accuracy in Symmetry determination                      0.100000E-05
 BRILLOUIN| K-Point point group symmetrization                               OFF
 BRILLOUIN| Wavefunction type                                            COMPLEX
 BRILLOUIN| List of Kpoints [2 Pi/Bohr]                                        8
 BRILLOUIN| Number           Weight            X              Y              Z
 BRILLOUIN|     1           0.12500       -0.37500       -0.37500        0.00000
 BRILLOUIN|     2           0.12500       -0.37500       -0.12500        0.00000
 BRILLOUIN|     3           0.12500       -0.37500        0.12500        0.00000
 BRILLOUIN|     4           0.12500       -0.37500        0.37500        0.00000
 BRILLOUIN|     5           0.12500       -0.12500       -0.37500        0.00000
 BRILLOUIN|     6           0.12500       -0.12500       -0.12500        0.00000
 BRILLOUIN|     7           0.12500       -0.12500        0.12500        0.00000
 BRILLOUIN|     8           0.12500       -0.12500        0.37500        0.00000
 *******************************************************************************

 *******************************************************************************
 *******************************************************************************
 **                                                                           **
 **     #####                         ##              ##                      **
 **    ##   ##            ##          ##              ##                      **
 **   ##     ##                       ##            ######                    **
 **   ##     ##  ##   ##  ##   #####  ##  ##   ####   ##    #####    #####    **
 **   ##     ##  ##   ##  ##  ##      ## ##   ##      ##   ##   ##  ##   ##   **
 **   ##  ## ##  ##   ##  ##  ##      ####     ###    ##   ######   ######    **
 **    ##  ###   ##   ##  ##  ##      ## ##      ##   ##   ##       ##        **
 **     #######   #####   ##   #####  ##  ##  ####    ##    #####   ##        **
 **           ##                                                    ##        **
 **                                                                           **
 **                                                ... make the atoms dance   **
 **                                                                           **
 **            Copyright (C) by CP2K developers group (2000-2023)             **
 **                      J. Chem. Phys. 152, 194103 (2020)                    **
 **                                                                           **
 *******************************************************************************

 *** WARNING in qs_environment.F:1456 :: Number of electrons will be ***
 *** overwritten by NELEC_ALPHA and NELEC_BETA, multiplicity will be ***
 *** ignored.                                                        ***

 Number of electrons should be                                               576
 Sum of NELEC_ALPHA and NELEC_BETA is                                    576.000

 *** WARNING in qs_environment.F:1488 :: NELEC_ALPHA is not an integer, ***
 *** many features will not be supported.                               ***


 *** WARNING in qs_environment.F:1500 :: NELEC_BETA is not an integer, ***
 *** many features will not be supported.                              ***


 *** WARNING in qs_environment.F:1532 :: More ADDED_MOs requested for beta ***
 *** spin than available.                                                  ***


 *** WARNING in qs_environment.F:1548 :: More added MOs requested than     ***
 *** available. The full set of unoccupied MOs will be used. Use           ***
 *** 'ADDED_MOS -1' to always use all available MOs and to get rid of this ***
 *** warning.                                                              ***


 DFT| Spin unrestricted (spin-polarized) Kohn-Sham calculation               UKS
 DFT| Multiplicity                                                             1
 DFT| Number of spin states                                                    2
 DFT| Charge                                                                   0
 DFT| Self-interaction correction (SIC)                                       NO
 DFT| Cutoffs: density                                              1.000000E-10
 DFT|          gradient                                             1.000000E-10
 DFT|          tau                                                  1.000000E-10
 DFT|          cutoff_smoothing_range                               0.000000E+00
 DFT| XC density smoothing                                                  NONE
 DFT| XC derivatives                                                          PW

 FUNCTIONAL| PBE:
 FUNCTIONAL| J.P.Perdew, K.Burke, M.Ernzerhof, Phys. Rev. Letter, vol. 77, n 18,
 FUNCTIONAL|  pp. 3865-3868, (1996){spin polarized}                             

 vdW POTENTIAL|                                                   Pair Potential
 vdW POTENTIAL|          DFT-D3 (Version 3.1)
 vdW POTENTIAL|          Potential Form: S. Grimme et al, JCP 132: 154104 (2010)
 vdW POTENTIAL|          Zero Damping
 vdW POTENTIAL|          Cutoff Radius [Bohr]:                             20.00
 vdW POTENTIAL|          s6 Scaling Factor:                               1.0000
 vdW POTENTIAL|          sr6 Scaling Factor:                              1.2170
 vdW POTENTIAL|          s8 Scaling Factor:                               0.7220
 vdW POTENTIAL|          Cutoff for CN calculation:                   0.1000E-05

 QS| Method:                                                                 GPW
 QS| Density plane wave grid type                        NON-SPHERICAL FULLSPACE
 QS| Number of grid levels:                                                    5
 QS| Density cutoff [a.u.]:                                                300.0
 QS| Multi grid cutoff [a.u.]: 1) grid level                               300.0
 QS|                           2) grid level                               100.0
 QS|                           3) grid level                                33.3
 QS|                           4) grid level                                11.1
 QS|                           5) grid level                                 3.7
 QS| Grid level progression factor:                                          3.0
 QS| Relative density cutoff [a.u.]:                                        30.0
 QS| Interaction thresholds: eps_pgf_orb:                                1.0E-06
 QS|                         eps_filter_matrix:                          0.0E+00
 QS|                         eps_core_charge:                            1.0E-14
 QS|                         eps_rho_gspace:                             1.0E-12
 QS|                         eps_rho_rspace:                             1.0E-12
 QS|                         eps_gvg_rspace:                             1.0E-06
 QS|                         eps_ppl:                                    1.0E-02
 QS|                         eps_ppnl:                                   1.0E-08


 ATOMIC KIND INFORMATION

  1. Atomic kind: Ni_i                                  Number of atoms:      16

     Orbital Basis Set                                        DZVP-MOLOPT-SR-GTH

       Number of orbital shell sets:                                           1
       Number of orbital shells:                                               8
       Number of primitive Cartesian functions:                                6
       Number of Cartesian basis functions:                                   31
       Number of spherical basis functions:                                   26
       Norm type:                                                              2

       Normalised Cartesian orbitals:

                        Set   Shell   Orbital            Exponent    Coefficient

                          1       1    2s               10.077428      -0.684558
                                                         5.847736      -0.844524
                                                         2.494033       1.088856
                                                         0.988355       0.395503
                                                         0.344978       0.010224
                                                         0.099466      -0.003250

                          1       2    3s               10.077428       0.096747
                                                         5.847736       0.162504
                                                         2.494033      -0.297192
                                                         0.988355      -0.319752
                                                         0.344978       0.088318
                                                         0.099466       0.118587

                          1       3    4s               10.077428       0.036437
                                                         5.847736      -0.381480
                                                         2.494033       0.003759
                                                         0.988355      -1.048256
                                                         0.344978       0.855825
                                                         0.099466      -0.176350

                          1       4    3px              10.077428      -3.133913
                                                         5.847736       3.027656
                                                         2.494033       2.353227
                                                         0.988355       0.554184
                                                         0.344978       0.019462
                                                         0.099466      -0.000291
                          1       4    3py              10.077428      -3.133913
                                                         5.847736       3.027656
                                                         2.494033       2.353227
                                                         0.988355       0.554184
                                                         0.344978       0.019462
                                                         0.099466      -0.000291
                          1       4    3pz              10.077428      -3.133913
                                                         5.847736       3.027656
                                                         2.494033       2.353227
                                                         0.988355       0.554184
                                                         0.344978       0.019462
                                                         0.099466      -0.000291

                          1       5    4px              10.077428      -0.112729
                                                         5.847736      -0.114008
                                                         2.494033      -0.347303
                                                         0.988355      -0.110323
                                                         0.344978       0.154096
                                                         0.099466       0.058386
                          1       5    4py              10.077428      -0.112729
                                                         5.847736      -0.114008
                                                         2.494033      -0.347303
                                                         0.988355      -0.110323
                                                         0.344978       0.154096
                                                         0.099466       0.058386
                          1       5    4pz              10.077428      -0.112729
                                                         5.847736      -0.114008
                                                         2.494033      -0.347303
                                                         0.988355      -0.110323
                                                         0.344978       0.154096
                                                         0.099466       0.058386

                          1       6    4dx2             10.077428       8.232726
                                                         5.847736       9.105758
                                                         2.494033       2.849835
                                                         0.988355       0.554319
                                                         0.344978       0.067245
                                                         0.099466       0.001940
                          1       6    4dxy             10.077428      14.259500
                                                         5.847736      15.771636
                                                         2.494033       4.936060
                                                         0.988355       0.960109
                                                         0.344978       0.116472
                                                         0.099466       0.003360
                          1       6    4dxz             10.077428      14.259500
                                                         5.847736      15.771636
                                                         2.494033       4.936060
                                                         0.988355       0.960109
                                                         0.344978       0.116472
                                                         0.099466       0.003360
                          1       6    4dy2             10.077428       8.232726
                                                         5.847736       9.105758
                                                         2.494033       2.849835
                                                         0.988355       0.554319
                                                         0.344978       0.067245
                                                         0.099466       0.001940
                          1       6    4dyz             10.077428      14.259500
                                                         5.847736      15.771636
                                                         2.494033       4.936060
                                                         0.988355       0.960109
                                                         0.344978       0.116472
                                                         0.099466       0.003360
                          1       6    4dz2             10.077428       8.232726
                                                         5.847736       9.105758
                                                         2.494033       2.849835
                                                         0.988355       0.554319
                                                         0.344978       0.067245
                                                         0.099466       0.001940

                          1       7    5dx2             10.077428      -2.715373
                                                         5.847736      -4.020640
                                                         2.494033      -1.397569
                                                         0.988355      -0.076143
                                                         0.344978       0.033435
                                                         0.099466       0.026032
                          1       7    5dxy             10.077428      -4.703164
                                                         5.847736      -6.963952
                                                         2.494033      -2.420661
                                                         0.988355      -0.131883
                                                         0.344978       0.057911
                                                         0.099466       0.045088
                          1       7    5dxz             10.077428      -4.703164
                                                         5.847736      -6.963952
                                                         2.494033      -2.420661
                                                         0.988355      -0.131883
                                                         0.344978       0.057911
                                                         0.099466       0.045088
                          1       7    5dy2             10.077428      -2.715373
                                                         5.847736      -4.020640
                                                         2.494033      -1.397569
                                                         0.988355      -0.076143
                                                         0.344978       0.033435
                                                         0.099466       0.026032
                          1       7    5dyz             10.077428      -4.703164
                                                         5.847736      -6.963952
                                                         2.494033      -2.420661
                                                         0.988355      -0.131883
                                                         0.344978       0.057911
                                                         0.099466       0.045088
                          1       7    5dz2             10.077428      -2.715373
                                                         5.847736      -4.020640
                                                         2.494033      -1.397569
                                                         0.988355      -0.076143
                                                         0.344978       0.033435
                                                         0.099466       0.026032

                          1       8    5fx3             10.077428      -0.467694
                                                         5.847736       0.618100
                                                         2.494033       0.066069
                                                         0.988355       0.262898
                                                         0.344978       0.004720
                                                         0.099466       0.007748
                          1       8    5fx2y            10.077428      -1.045795
                                                         5.847736       1.382114
                                                         2.494033       0.147734
                                                         0.988355       0.587859
                                                         0.344978       0.010555
                                                         0.099466       0.017325
                          1       8    5fx2z            10.077428      -1.045795
                                                         5.847736       1.382114
                                                         2.494033       0.147734
                                                         0.988355       0.587859
                                                         0.344978       0.010555
                                                         0.099466       0.017325
                          1       8    5fxy2            10.077428      -1.045795
                                                         5.847736       1.382114
                                                         2.494033       0.147734
                                                         0.988355       0.587859
                                                         0.344978       0.010555
                                                         0.099466       0.017325
                          1       8    5fxyz            10.077428      -1.811371
                                                         5.847736       2.393892
                                                         2.494033       0.255883
                                                         0.988355       1.018201
                                                         0.344978       0.018282
                                                         0.099466       0.030008
                          1       8    5fxz2            10.077428      -1.045795
                                                         5.847736       1.382114
                                                         2.494033       0.147734
                                                         0.988355       0.587859
                                                         0.344978       0.010555
                                                         0.099466       0.017325
                          1       8    5fy3             10.077428      -0.467694
                                                         5.847736       0.618100
                                                         2.494033       0.066069
                                                         0.988355       0.262898
                                                         0.344978       0.004720
                                                         0.099466       0.007748
                          1       8    5fy2z            10.077428      -1.045795
                                                         5.847736       1.382114
                                                         2.494033       0.147734
                                                         0.988355       0.587859
                                                         0.344978       0.010555
                                                         0.099466       0.017325
                          1       8    5fyz2            10.077428      -1.045795
                                                         5.847736       1.382114
                                                         2.494033       0.147734
                                                         0.988355       0.587859
                                                         0.344978       0.010555
                                                         0.099466       0.017325
                          1       8    5fz3             10.077428      -0.467694
                                                         5.847736       0.618100
                                                         2.494033       0.066069
                                                         0.988355       0.262898
                                                         0.344978       0.004720
                                                         0.099466       0.007748

       Atomic covalent radius [Angstrom]:                                  1.150

       Atomic van der Waals radius [Angstrom]:                             1.630

     GTH Potential information for                                   GTH-PBE-q18

       Description:                       Goedecker-Teter-Hutter pseudopotential
                                           Goedecker et al., PRB 54, 1703 (1996)
                                          Hartwigsen et al., PRB 58, 3641 (1998)
                                                      Krack, TCA 114, 145 (2005)

       Gaussian exponent of the core charge distribution:               4.081633
       Electronic configuration (s p d ...):                           4   6   8

       Parameters of the local part of the GTH pseudopotential:

                          rloc        C1          C2          C3          C4
                        0.350000    2.102166    0.648484

       Parameters of the non-local part of the GTH pseudopotential:

                   l      r(l)      h(i,j,l)

                   0    0.261295    0.622658    9.970227
                                    9.970227  -12.871507
                   1    0.224253  -11.142708   12.429566
                                   12.429566  -14.706861
                   2    0.215348  -12.628146

  2. Atomic kind: Ni_b                                  Number of atoms:      16

     Orbital Basis Set                                        DZVP-MOLOPT-SR-GTH

       Number of orbital shell sets:                                           1
       Number of orbital shells:                                               8
       Number of primitive Cartesian functions:                                6
       Number of Cartesian basis functions:                                   31
       Number of spherical basis functions:                                   26
       Norm type:                                                              2

       Normalised Cartesian orbitals:

                        Set   Shell   Orbital            Exponent    Coefficient

                          1       1    2s               10.077428      -0.684558
                                                         5.847736      -0.844524
                                                         2.494033       1.088856
                                                         0.988355       0.395503
                                                         0.344978       0.010224
                                                         0.099466      -0.003250

                          1       2    3s               10.077428       0.096747
                                                         5.847736       0.162504
                                                         2.494033      -0.297192
                                                         0.988355      -0.319752
                                                         0.344978       0.088318
                                                         0.099466       0.118587

                          1       3    4s               10.077428       0.036437
                                                         5.847736      -0.381480
                                                         2.494033       0.003759
                                                         0.988355      -1.048256
                                                         0.344978       0.855825
                                                         0.099466      -0.176350

                          1       4    3px              10.077428      -3.133913
                                                         5.847736       3.027656
                                                         2.494033       2.353227
                                                         0.988355       0.554184
                                                         0.344978       0.019462
                                                         0.099466      -0.000291
                          1       4    3py              10.077428      -3.133913
                                                         5.847736       3.027656
                                                         2.494033       2.353227
                                                         0.988355       0.554184
                                                         0.344978       0.019462
                                                         0.099466      -0.000291
                          1       4    3pz              10.077428      -3.133913
                                                         5.847736       3.027656
                                                         2.494033       2.353227
                                                         0.988355       0.554184
                                                         0.344978       0.019462
                                                         0.099466      -0.000291

                          1       5    4px              10.077428      -0.112729
                                                         5.847736      -0.114008
                                                         2.494033      -0.347303
                                                         0.988355      -0.110323
                                                         0.344978       0.154096
                                                         0.099466       0.058386
                          1       5    4py              10.077428      -0.112729
                                                         5.847736      -0.114008
                                                         2.494033      -0.347303
                                                         0.988355      -0.110323
                                                         0.344978       0.154096
                                                         0.099466       0.058386
                          1       5    4pz              10.077428      -0.112729
                                                         5.847736      -0.114008
                                                         2.494033      -0.347303
                                                         0.988355      -0.110323
                                                         0.344978       0.154096
                                                         0.099466       0.058386

                          1       6    4dx2             10.077428       8.232726
                                                         5.847736       9.105758
                                                         2.494033       2.849835
                                                         0.988355       0.554319
                                                         0.344978       0.067245
                                                         0.099466       0.001940
                          1       6    4dxy             10.077428      14.259500
                                                         5.847736      15.771636
                                                         2.494033       4.936060
                                                         0.988355       0.960109
                                                         0.344978       0.116472
                                                         0.099466       0.003360
                          1       6    4dxz             10.077428      14.259500
                                                         5.847736      15.771636
                                                         2.494033       4.936060
                                                         0.988355       0.960109
                                                         0.344978       0.116472
                                                         0.099466       0.003360
                          1       6    4dy2             10.077428       8.232726
                                                         5.847736       9.105758
                                                         2.494033       2.849835
                                                         0.988355       0.554319
                                                         0.344978       0.067245
                                                         0.099466       0.001940
                          1       6    4dyz             10.077428      14.259500
                                                         5.847736      15.771636
                                                         2.494033       4.936060
                                                         0.988355       0.960109
                                                         0.344978       0.116472
                                                         0.099466       0.003360
                          1       6    4dz2             10.077428       8.232726
                                                         5.847736       9.105758
                                                         2.494033       2.849835
                                                         0.988355       0.554319
                                                         0.344978       0.067245
                                                         0.099466       0.001940

                          1       7    5dx2             10.077428      -2.715373
                                                         5.847736      -4.020640
                                                         2.494033      -1.397569
                                                         0.988355      -0.076143
                                                         0.344978       0.033435
                                                         0.099466       0.026032
                          1       7    5dxy             10.077428      -4.703164
                                                         5.847736      -6.963952
                                                         2.494033      -2.420661
                                                         0.988355      -0.131883
                                                         0.344978       0.057911
                                                         0.099466       0.045088
                          1       7    5dxz             10.077428      -4.703164
                                                         5.847736      -6.963952
                                                         2.494033      -2.420661
                                                         0.988355      -0.131883
                                                         0.344978       0.057911
                                                         0.099466       0.045088
                          1       7    5dy2             10.077428      -2.715373
                                                         5.847736      -4.020640
                                                         2.494033      -1.397569
                                                         0.988355      -0.076143
                                                         0.344978       0.033435
                                                         0.099466       0.026032
                          1       7    5dyz             10.077428      -4.703164
                                                         5.847736      -6.963952
                                                         2.494033      -2.420661
                                                         0.988355      -0.131883
                                                         0.344978       0.057911
                                                         0.099466       0.045088
                          1       7    5dz2             10.077428      -2.715373
                                                         5.847736      -4.020640
                                                         2.494033      -1.397569
                                                         0.988355      -0.076143
                                                         0.344978       0.033435
                                                         0.099466       0.026032

                          1       8    5fx3             10.077428      -0.467694
                                                         5.847736       0.618100
                                                         2.494033       0.066069
                                                         0.988355       0.262898
                                                         0.344978       0.004720
                                                         0.099466       0.007748
                          1       8    5fx2y            10.077428      -1.045795
                                                         5.847736       1.382114
                                                         2.494033       0.147734
                                                         0.988355       0.587859
                                                         0.344978       0.010555
                                                         0.099466       0.017325
                          1       8    5fx2z            10.077428      -1.045795
                                                         5.847736       1.382114
                                                         2.494033       0.147734
                                                         0.988355       0.587859
                                                         0.344978       0.010555
                                                         0.099466       0.017325
                          1       8    5fxy2            10.077428      -1.045795
                                                         5.847736       1.382114
                                                         2.494033       0.147734
                                                         0.988355       0.587859
                                                         0.344978       0.010555
                                                         0.099466       0.017325
                          1       8    5fxyz            10.077428      -1.811371
                                                         5.847736       2.393892
                                                         2.494033       0.255883
                                                         0.988355       1.018201
                                                         0.344978       0.018282
                                                         0.099466       0.030008
                          1       8    5fxz2            10.077428      -1.045795
                                                         5.847736       1.382114
                                                         2.494033       0.147734
                                                         0.988355       0.587859
                                                         0.344978       0.010555
                                                         0.099466       0.017325
                          1       8    5fy3             10.077428      -0.467694
                                                         5.847736       0.618100
                                                         2.494033       0.066069
                                                         0.988355       0.262898
                                                         0.344978       0.004720
                                                         0.099466       0.007748
                          1       8    5fy2z            10.077428      -1.045795
                                                         5.847736       1.382114
                                                         2.494033       0.147734
                                                         0.988355       0.587859
                                                         0.344978       0.010555
                                                         0.099466       0.017325
                          1       8    5fyz2            10.077428      -1.045795
                                                         5.847736       1.382114
                                                         2.494033       0.147734
                                                         0.988355       0.587859
                                                         0.344978       0.010555
                                                         0.099466       0.017325
                          1       8    5fz3             10.077428      -0.467694
                                                         5.847736       0.618100
                                                         2.494033       0.066069
                                                         0.988355       0.262898
                                                         0.344978       0.004720
                                                         0.099466       0.007748

       Atomic covalent radius [Angstrom]:                                  1.150

       Atomic van der Waals radius [Angstrom]:                             1.630

     GTH Potential information for                                   GTH-PBE-q18

       Description:                       Goedecker-Teter-Hutter pseudopotential
                                           Goedecker et al., PRB 54, 1703 (1996)
                                          Hartwigsen et al., PRB 58, 3641 (1998)
                                                      Krack, TCA 114, 145 (2005)

       Gaussian exponent of the core charge distribution:               4.081633
       Electronic configuration (s p d ...):                           4   6   8

       Parameters of the local part of the GTH pseudopotential:

                          rloc        C1          C2          C3          C4
                        0.350000    2.102166    0.648484

       Parameters of the non-local part of the GTH pseudopotential:

                   l      r(l)      h(i,j,l)

                   0    0.261295    0.622658    9.970227
                                    9.970227  -12.871507
                   1    0.224253  -11.142708   12.429566
                                   12.429566  -14.706861
                   2    0.215348  -12.628146


 MOLECULE KIND INFORMATION


 All atoms are their own molecule, skipping detailed information


 TOTAL NUMBERS AND MAXIMUM NUMBERS

  Total number of            - Atomic kinds:                                   2
                             - Atoms:                                         32
                             - Shell sets:                                    32
                             - Shells:                                       256
                             - Primitive Cartesian functions:                192
                             - Cartesian basis functions:                    992
                             - Spherical basis functions:                    832

  Maximum angular momentum of- Orbital basis functions:                        3
                             - Local part of the GTH pseudopotential:          2
                             - Non-local part of the GTH pseudopotential:      3


 MODULE QUICKSTEP: ATOMIC COORDINATES IN ANGSTROM

   Atom Kind Element         X             Y             Z       Z(eff)     Mass
      1    1 Ni   28      0.876298      0.876298      7.370500  18.0000  58.6934
      2    1 Ni   28      0.876298      4.382298      7.370500  18.0000  58.6934
      3    1 Ni   28      2.629298      2.629298      7.370500  18.0000  58.6934
      4    1 Ni   28      2.629298      6.135298      7.370500  18.0000  58.6934
      5    1 Ni   28      4.382298      0.876298      7.370500  18.0000  58.6934
      6    1 Ni   28      4.382298      4.382298      7.370500  18.0000  58.6934
      7    1 Ni   28      6.135298      2.629298      7.370500  18.0000  58.6934
      8    1 Ni   28      6.135298      6.135298      7.370500  18.0000  58.6934
      9    2 Ni   28      0.876298      2.629298      9.123500  18.0000  58.6934
     10    2 Ni   28      0.876298      6.135298      9.123500  18.0000  58.6934
     11    2 Ni   28      2.629298      0.876298      9.123500  18.0000  58.6934
     12    2 Ni   28      2.629298      4.382298      9.123500  18.0000  58.6934
     13    2 Ni   28      4.382298      2.629298      9.123500  18.0000  58.6934
     14    2 Ni   28      4.382298      6.135298      9.123500  18.0000  58.6934
     15    2 Ni   28      6.135298      0.876298      9.123500  18.0000  58.6934
     16    2 Ni   28      6.135298      4.382298      9.123500  18.0000  58.6934
     17    2 Ni   28      0.876298      0.876298     10.876500  18.0000  58.6934
     18    2 Ni   28      0.876298      4.382298     10.876500  18.0000  58.6934
     19    2 Ni   28      2.629298      2.629298     10.876500  18.0000  58.6934
     20    2 Ni   28      2.629298      6.135298     10.876500  18.0000  58.6934
     21    2 Ni   28      4.382298      0.876298     10.876500  18.0000  58.6934
     22    2 Ni   28      4.382298      4.382298     10.876500  18.0000  58.6934
     23    2 Ni   28      6.135298      2.629298     10.876500  18.0000  58.6934
     24    2 Ni   28      6.135298      6.135298     10.876500  18.0000  58.6934
     25    1 Ni   28      0.876298      2.629298     12.629500  18.0000  58.6934
     26    1 Ni   28      0.876298      6.135298     12.629500  18.0000  58.6934
     27    1 Ni   28      2.629298      0.876298     12.629500  18.0000  58.6934
     28    1 Ni   28      2.629298      4.382298     12.629500  18.0000  58.6934
     29    1 Ni   28      4.382298      2.629298     12.629500  18.0000  58.6934
     30    1 Ni   28      4.382298      6.135298     12.629500  18.0000  58.6934
     31    1 Ni   28      6.135298      0.876298     12.629500  18.0000  58.6934
     32    1 Ni   28      6.135298      4.382298     12.629500  18.0000  58.6934



 SCF PARAMETERS         Density guess:                                    ATOMIC
                        --------------------------------------------------------
                        max_scf:                                             500
                        max_scf_history:                                       0
                        max_diis:                                              4
                        --------------------------------------------------------
                        eps_scf:                                        1.00E-04
                        eps_scf_history:                                0.00E+00
                        eps_diis:                                       1.00E-01
                        eps_eigval:                                     1.00E-05
                        --------------------------------------------------------
                        level_shift [a.u.]:                             0.000000
                        added MOs                                       534  553
                        --------------------------------------------------------
                        Mixing method:                            BROYDEN_MIXING
                                                charge density mixing in g-space
                        --------------------------------------------------------
                        Smear method:                                FERMI_DIRAC
                        Electronic temperature [K]:                       2000.0
                        Electronic temperature [a.u.]:                  6.33E-03
                        Accuracy threshold:                             1.00E-10
                        --------------------------------------------------------
                        No outer SCF

 PW_GRID| Information for grid number                                          1
 PW_GRID| Grid distributed over                                   128 processors
 PW_GRID| Real space group dimensions                                     8   16
 PW_GRID| the grid is blocked:                                               YES
 PW_GRID| Cutoff [a.u.]                                                    300.0
 PW_GRID| spherical cutoff:                                                   NO
 PW_GRID|   Bounds   1            -54      53                Points:         108
 PW_GRID|   Bounds   2            -54      53                Points:         108
 PW_GRID|   Bounds   3           -150     149                Points:         300
 PW_GRID| Volume element (a.u.^3)  0.1896E-02     Volume (a.u.^3)      6635.2971
 PW_GRID| Grid span                                                    FULLSPACE
 PW_GRID|   Distribution                         Average         Max         Min
 PW_GRID|   G-Vectors                            27337.5       28728       25272
 PW_GRID|   G-Rays                                 253.1         266         234
 PW_GRID|   Real Space Points                    27337.5       28728       25272

 PW_GRID| Information for grid number                                          2
 PW_GRID| Number of the reference grid                                         1
 PW_GRID| Grid distributed over                                   128 processors
 PW_GRID| Real space group dimensions                                     8   16
 PW_GRID| the grid is blocked:                                                NO
 PW_GRID| Cutoff [a.u.]                                                    100.0
 PW_GRID| spherical cutoff:                                                   NO
 PW_GRID|   Bounds   1            -30      29                Points:          60
 PW_GRID|   Bounds   2            -30      29                Points:          60
 PW_GRID|   Bounds   3            -90      89                Points:         180
 PW_GRID| Volume element (a.u.^3)  0.1024E-01     Volume (a.u.^3)      6635.2971
 PW_GRID| Grid span                                                    FULLSPACE
 PW_GRID|   Distribution                         Average         Max         Min
 PW_GRID|   G-Vectors                             5062.5       15960           0
 PW_GRID|   G-Rays                                  84.4         266           0
 PW_GRID|   Real Space Points                     5062.5        5760        3780

 PW_GRID| Information for grid number                                          3
 PW_GRID| Number of the reference grid                                         1
 PW_GRID| Grid distributed over                                   128 processors
 PW_GRID| Real space group dimensions                                     8   16
 PW_GRID| the grid is blocked:                                                NO
 PW_GRID| Cutoff [a.u.]                                                     33.3
 PW_GRID| spherical cutoff:                                                   NO
 PW_GRID|   Bounds   1            -18      17                Points:          36
 PW_GRID|   Bounds   2            -18      17                Points:          36
 PW_GRID|   Bounds   3            -50      49                Points:         100
 PW_GRID| Volume element (a.u.^3)  0.5120E-01     Volume (a.u.^3)      6635.2971
 PW_GRID| Grid span                                                    FULLSPACE
 PW_GRID|   Distribution                         Average         Max         Min
 PW_GRID|   G-Vectors                             1012.5        9576           0
 PW_GRID|   G-Rays                                  28.1         266           0
 PW_GRID|   Real Space Points                     1012.5        1500         800

 PW_GRID| Information for grid number                                          4
 PW_GRID| Number of the reference grid                                         1
 PW_GRID| Grid distributed over                                   128 processors
 PW_GRID| Real space group dimensions                                     8   16
 PW_GRID| the grid is blocked:                                                NO
 PW_GRID| Cutoff [a.u.]                                                     11.1
 PW_GRID| spherical cutoff:                                                   NO
 PW_GRID|   Bounds   1            -10       9                Points:          20
 PW_GRID|   Bounds   2            -10       9                Points:          20
 PW_GRID|   Bounds   3            -30      29                Points:          60
 PW_GRID| Volume element (a.u.^3)  0.2765         Volume (a.u.^3)      6635.2971
 PW_GRID| Grid span                                                    FULLSPACE
 PW_GRID|   Distribution                         Average         Max         Min
 PW_GRID|   G-Vectors                              187.5        3800           0
 PW_GRID|   G-Rays                                   9.4         190           0
 PW_GRID|   Real Space Points                      187.5         360         120

 PW_GRID| Information for grid number                                          5
 PW_GRID| Number of the reference grid                                         1
 PW_GRID| Grid distributed over                                   128 processors
 PW_GRID| Real space group dimensions                                     8   16
 PW_GRID| the grid is blocked:                                                NO
 PW_GRID| Cutoff [a.u.]                                                      3.7
 PW_GRID| spherical cutoff:                                                   NO
 PW_GRID|   Bounds   1             -6       5                Points:          12
 PW_GRID|   Bounds   2             -6       5                Points:          12
 PW_GRID|   Bounds   3            -18      17                Points:          36
 PW_GRID| Volume element (a.u.^3)   1.280         Volume (a.u.^3)      6635.2971
 PW_GRID| Grid span                                                    FULLSPACE
 PW_GRID|   Distribution                         Average         Max         Min
 PW_GRID|   G-Vectors                               40.5        1296           0
 PW_GRID|   G-Rays                                   3.4         108           0
 PW_GRID|   Real Space Points                       40.5          72           0

 POISSON| Solver                                                        PERIODIC
 POISSON| Periodicity                                                        XYZ

 RS_GRID| Information for grid number                                          1
 RS_GRID|   Bounds   1            -54      53                Points:         108
 RS_GRID|   Bounds   2            -54      53                Points:         108
 RS_GRID|   Bounds   3           -150     149                Points:         300
 RS_GRID| Real space distribution over                                  8 groups
 RS_GRID| Real space distribution along direction                              2
 RS_GRID| Border size                                                         28
 RS_GRID| Real space distribution over                                 16 groups
 RS_GRID| Real space distribution along direction                              3
 RS_GRID| Border size                                                         28
 RS_GRID|   Distribution                         Average         Max         Min
 RS_GRID|   Planes                                  69.5          70          69
 RS_GRID|   Distribution                         Average         Max         Min
 RS_GRID|   Planes                                  74.8          75          74

 RS_GRID| Information for grid number                                          2
 RS_GRID|   Bounds   1            -30      29                Points:          60
 RS_GRID|   Bounds   2            -30      29                Points:          60
 RS_GRID|   Bounds   3            -90      89                Points:         180
 RS_GRID| Real space fully replicated
 RS_GRID| Group size                                                           1

 RS_GRID| Information for grid number                                          3
 RS_GRID|   Bounds   1            -18      17                Points:          36
 RS_GRID|   Bounds   2            -18      17                Points:          36
 RS_GRID|   Bounds   3            -50      49                Points:         100
 RS_GRID| Real space fully replicated
 RS_GRID| Group size                                                           1

 RS_GRID| Information for grid number                                          4
 RS_GRID|   Bounds   1            -10       9                Points:          20
 RS_GRID|   Bounds   2            -10       9                Points:          20
 RS_GRID|   Bounds   3            -30      29                Points:          60
 RS_GRID| Real space fully replicated
 RS_GRID| Group size                                                           1

 RS_GRID| Information for grid number                                          5
 RS_GRID|   Bounds   1             -6       5                Points:          12
 RS_GRID|   Bounds   2             -6       5                Points:          12
 RS_GRID|   Bounds   3            -18      17                Points:          36
 RS_GRID| Real space fully replicated
 RS_GRID| Group size                                                           1

 Spin 1

 Number of electrons:                                                        297.600
 Number of occupied orbitals:                                                298
 Number of molecular orbitals:                                               832

 Spin 2

 Number of electrons:                                                        278.400
 Number of occupied orbitals:                                                279
 Number of molecular orbitals:                                               832

 Number of orbital functions:                                                832
 Number of independent orbital functions:                                    832

 Extrapolation method: initial_guess

 Atomic guess: The first density matrix is obtained in terms of atomic orbitals
               and electronic configurations assigned to each atomic kind

 Guess for atomic kind: Ni_i

 Electronic structure
    Total number of core electrons                                         10.00
    Total number of valence electrons                                      18.00
    Total number of electrons                                              28.00
    Multiplicity                                                         doublet
    Alpha Electrons
    S   [  1.00  1.00] 1.00  1.00
    P   [  3.00] 3.00
    D      4.35
    Beta Electrons
    S   [  1.00  1.00] 1.00  1.00
    P   [  3.00] 3.00
    D      3.65


 *******************************************************************************
                  Iteration          Convergence                     Energy [au]
 *******************************************************************************
                          1         1.51729                    -167.067424631347
                          2         15.3902                    -156.642654318634
                          3         2.33433                    -168.319355313541
                          4        0.206730                    -168.609905008081
                          5        0.814175E-01                -168.612873080494
                          6        0.173318E-01                -168.613470181066
                          7        0.290432E-02                -168.613543571401
                          8        0.311825E-02                -168.613543401474
                          9        0.179670E-03                -168.613544404477
                         10        0.169386E-02                -168.613544207811
                         11        0.473341E-03                -168.613544360253
                         12        0.165417E-03                -168.613544400419
                         13        0.162622E-03                -168.613544401489
                         14        0.158325E-03                -168.613544403900
                         15        0.177007E-03                -168.613544402509
                         16        0.138916E-03                -168.613544404900
                         17        0.934549E-04                -168.613544406149
                         18        0.119916E-03                -168.613544405789
                         19        0.131607E-03                -168.613544405591
                         20        0.169309E-03                -168.613544404773
                         21        0.551337E-04                -168.613544406656
                         22        0.382664E-04                -168.613544406759
                         23        0.378942E-04                -168.613544406765
                         24        0.381089E-04                -168.613544406765
                         25        0.390835E-04                -168.613544406759
                         26        0.308614E-04                -168.613544406841
                         27        0.205044E-04                -168.613544406892
                         28        0.200942E-04                -168.613544406893
                         29        0.199375E-04                -168.613544406893
                         30        0.200198E-04                -168.613544406894
                         31        0.161325E-04                -168.613544406903
                         32        0.330614E-05                -168.613544406925
                         33        0.238713E-05                -168.613544406926
                         34        0.265439E-05                -168.613544406926
                         35        0.277073E-05                -168.613544406926
                         36        0.335175E-05                -168.613544406926
                         37        0.148809E-05                -168.613544406927
                         38        0.133447E-05                -168.613544406927
                         39        0.918735E-06                -168.613544406927

 Energy components [Hartree]           Total Energy ::         -168.613544406927
                                        Band Energy ::          -26.569761966525
                                     Kinetic Energy ::           97.306723392622
                                   Potential Energy ::         -265.920267799548
                                      Virial (-V/T) ::            2.732804666812
                                        Core Energy ::         -299.567979157577
                                          XC Energy ::          -16.227189041387
                                     Coulomb Energy ::          147.181623792037
                       Total Pseudopotential Energy ::         -396.961043505191
                       Local Pseudopotential Energy ::         -362.648291121960
                    Nonlocal Pseudopotential Energy ::          -34.312752383230
                                        Confinement ::            0.863409549921

 Orbital energies  State     Spin  L     Occupation   Energy[a.u.]    Energy[eV]

                       1    alpha  0          1.000      -4.172666   -113.544030
                       2    alpha  0          1.000      -0.181431     -4.936983
                       1     beta  0          1.000      -4.140640   -112.672541
                       2     beta  0          1.000      -0.176372     -4.799339

                       1    alpha  1          3.000      -2.578739    -70.171064
                       1     beta  1          3.000      -2.547579    -69.323162

                       1    alpha  2          4.350      -0.327039     -8.899191
                       1     beta  2          3.650      -0.300569     -8.178887


 Total Electron Density at R=0:                                         0.030422

 Guess for atomic kind: Ni_b

 Electronic structure
    Total number of core electrons                                         10.00
    Total number of valence electrons                                      18.00
    Total number of electrons                                              28.00
    Multiplicity                                                         doublet
    Alpha Electrons
    S   [  1.00  1.00] 1.00  1.00
    P   [  3.00] 3.00
    D      4.25
    Beta Electrons
    S   [  1.00  1.00] 1.00  1.00
    P   [  3.00] 3.00
    D      3.75


 *******************************************************************************
                  Iteration          Convergence                     Energy [au]
 *******************************************************************************
                          1         1.51687                    -167.065012761055
                          2         14.9817                    -156.620431300845
                          3         2.25575                    -168.317311438693
                          4        0.189210                    -168.607926092750
                          5        0.708658E-01                -168.610773319290
                          6        0.122256E-01                -168.611238205502
                          7        0.598421E-02                -168.611272268995
                          8        0.528277E-02                -168.611272438110
                          9        0.104644E-02                -168.611275321653
                         10        0.260234E-02                -168.611274926630
                         11        0.975322E-03                -168.611275328217
                         12        0.161067E-03                -168.611275447773
                         13        0.147413E-03                -168.611275446839
                         14        0.115114E-03                -168.611275449434
                         15        0.167217E-03                -168.611275445436
                         16        0.255374E-04                -168.611275450531
                         17        0.418369E-04                -168.611275450414
                         18        0.393709E-04                -168.611275450477
                         19        0.239931E-04                -168.611275450542
                         20        0.173885E-04                -168.611275450557
                         21        0.851368E-05                -168.611275450578
                         22        0.849928E-05                -168.611275450580
                         23        0.544937E-05                -168.611275450584
                         24        0.540003E-05                -168.611275450586
                         25        0.613371E-05                -168.611275450584
                         26        0.311593E-06                -168.611275450588

 Energy components [Hartree]           Total Energy ::         -168.611275450588
                                        Band Energy ::          -26.568680144499
                                     Kinetic Energy ::           97.303659243130
                                   Potential Energy ::         -265.914934693718
                                      Virial (-V/T) ::            2.732835915546
                                        Core Energy ::         -299.566189183323
                                          XC Energy ::          -16.224592878785
                                     Coulomb Energy ::          147.179506611520
                       Total Pseudopotential Energy ::         -396.956189041778
                       Local Pseudopotential Energy ::         -362.645043136649
                    Nonlocal Pseudopotential Energy ::          -34.311145905129
                                        Confinement ::            0.863406153250

 Orbital energies  State     Spin  L     Occupation   Energy[a.u.]    Energy[eV]

                       1    alpha  0          1.000      -4.168335   -113.426177
                       2    alpha  0          1.000      -0.180730     -4.917906
                       1     beta  0          1.000      -4.145459   -112.803683
                       2     beta  0          1.000      -0.177117     -4.819606

                       1    alpha  1          3.000      -2.574525    -70.056390
                       1     beta  1          3.000      -2.552268    -69.450746

                       1    alpha  2          4.250      -0.323446     -8.801405
                       1     beta  2          3.750      -0.304537     -8.286881


 Total Electron Density at R=0:                                         0.030429

 Spin 1
 Re-scaling the density matrix to get the right number of electrons for spin 1
                  # Electrons              Trace(P)               Scaling factor
                        297.600             297.600                        1.000

 Spin 2
 Re-scaling the density matrix to get the right number of electrons for spin 2
                  # Electrons              Trace(P)               Scaling factor
                        278.400             278.400                        1.000


 SCF WAVEFUNCTION OPTIMIZATION

  Step     Update method      Time    Convergence         Total energy    Change
  ------------------------------------------------------------------------------
     1 NoMix/Diag. 0.10E-01    1.6     0.87318318     -5426.4441344177 -5.43E+03
     2 Broy./Diag. 0.10E-01    1.5     0.01251124     -5311.9303785223  1.15E+02
[...]
   124 Broy./Diag. 0.10E-01    1.5     0.05095709     -5418.2276951892  2.96E-01
   125 Broy./Diag. 0.10E-01    1.5     0.03565091     -5418.0500753921  1.78E-01
   126 Broy./Diag. 0.10E-01    1.5     0.00759334     -5418.1857808533 -1.36E-01
   127 Broy./Diag. 0.10E-01    1.5     0.02131377     -5418.1383612956  4.74E-02
   128 Broy./Diag. 0.10E-01    1.5     0.08633535     -5418.0018322008  1.37E-01
   129 Broy./Diag. 0.10E-01    1.5     0.02574325     -5418.9104542633 -9.09E-01
   130 Broy./Diag. 0.10E-01    1.5     0.07986230     -5418.9382956714 -2.78E-02
   131 Broy./Diag. 0.10E-01    1.5     0.05857963     -5419.2447420577 -3.06E-01
   132 Broy./Diag. 0.10E-01    1.5     0.00937630     -5418.8465116620  3.98E-01
   133 Broy./Diag. 0.10E-01    1.5     0.04207484     -5418.9556145581 -1.09E-01
   134 Broy./Diag. 0.10E-01    1.5     0.01581639     -5418.7292509563  2.26E-01
   135 Broy./Diag. 0.10E-01    1.5     0.01586585     -5418.6703397463  5.89E-02
   136 Broy./Diag. 0.10E-01    1.5     0.02027871     -5418.7835827063 -1.13E-01
   137 Broy./Diag. 0.10E-01    1.5     0.03448499     -5418.8284923531 -4.49E-02
   138 Broy./Diag. 0.10E-01    1.5     0.01006718     -5418.9032519834 -7.48E-02
   139 Broy./Diag. 0.10E-01    1.5     0.00833897     -5418.5900789321  3.13E-01
   140 Broy./Diag. 0.10E-01    1.5     0.05553444     -5418.7182204391 -1.28E-01
   141 Broy./Diag. 0.10E-01    1.5     0.01273454     -5419.5833266931 -8.65E-01
   142 Broy./Diag. 0.10E-01    1.5     0.03572704     -5419.6814789274 -9.82E-02
   143 Broy./Diag. 0.10E-01    1.5     0.00820296     -5418.9575125362  7.24E-01
   144 Broy./Diag. 0.10E-01    1.5     0.01088866     -5419.3067209788 -3.49E-01
   145 Broy./Diag. 0.10E-01    1.5     0.02542900     -5419.5986014968 -2.92E-01
   146 Broy./Diag. 0.10E-01    1.5     0.02090096     -5418.9238544707  6.75E-01
   147 Broy./Diag. 0.10E-01    1.5     0.00987083     -5418.7439422325  1.80E-01
   148 Broy./Diag. 0.10E-01    1.5     0.02520979     -5419.0244628439 -2.81E-01
   149 Broy./Diag. 0.10E-01    1.5     0.03813412     -5417.9052596422  1.12E+00
   150 Broy./Diag. 0.10E-01    1.5     0.01406401     -5417.9243682536 -1.91E-02
   151 Broy./Diag. 0.10E-01    1.5     0.00517816     -5418.4273015269 -5.03E-01
   152 Broy./Diag. 0.10E-01    1.5     0.00618199     -5417.7371280717  6.90E-01
   153 Broy./Diag. 0.10E-01    1.5     0.02108735     -5417.5275656856  2.10E-01
   154 Broy./Diag. 0.10E-01    1.5     0.04574994     -5417.5215114287  6.05E-03
   155 Broy./Diag. 0.10E-01    1.5     0.01103439     -5418.2019375728 -6.80E-01
   156 Broy./Diag. 0.10E-01    1.5     0.01217733     -5418.4105101281 -2.09E-01
   157 Broy./Diag. 0.10E-01    1.5     0.03613165     -5418.5804809414 -1.70E-01
   158 Broy./Diag. 0.10E-01    1.5     0.04715975     -5418.2508832687  3.30E-01
   159 Broy./Diag. 0.10E-01    1.5     0.04800557     -5418.3990467086 -1.48E-01
   160 Broy./Diag. 0.10E-01    1.5     0.02317598     -5418.1642655117  2.35E-01
   161 Broy./Diag. 0.10E-01    1.5     0.04082693     -5418.1624849273  1.78E-03
   162 Broy./Diag. 0.10E-01    1.5     0.02049434     -5418.2317664885 -6.93E-02
   163 Broy./Diag. 0.10E-01    1.5     0.04753710     -5418.1624767418  6.93E-02
   164 Broy./Diag. 0.10E-01    1.5     0.01103449     -5418.4161607031 -2.54E-01
   165 Broy./Diag. 0.10E-01    1.5     0.02623255     -5418.3484712798  6.77E-02
   166 Broy./Diag. 0.10E-01    1.5     0.08428325     -5418.6606072093 -3.12E-01
   167 Broy./Diag. 0.10E-01    1.5     0.04121852     -5418.3018959962  3.59E-01
   168 Broy./Diag. 0.10E-01    1.5     0.02329169     -5418.0037140996  2.98E-01
   169 Broy./Diag. 0.10E-01    1.5     0.01141623     -5417.9033840699  1.00E-01
   170 Broy./Diag. 0.10E-01    1.5     0.03227332     -5417.7625809456  1.41E-01
   171 Broy./Diag. 0.10E-01    1.5     0.01544240     -5418.1105348230 -3.48E-01
   172 Broy./Diag. 0.10E-01    1.5     0.01346819     -5418.1884627443 -7.79E-02
   173 Broy./Diag. 0.10E-01    1.5     0.02263301     -5418.0972744986  9.12E-02
   174 Broy./Diag. 0.10E-01    1.5     0.10399312     -5417.2366649247  8.61E-01
   175 Broy./Diag. 0.10E-01    1.5     0.14176837     -5418.5762013444 -1.34E+00
   176 Broy./Diag. 0.10E-01    1.5     0.04577112     -5416.5358935761  2.04E+00
   177 Broy./Diag. 0.10E-01    1.5     0.03991469     -5417.4775156893 -9.42E-01
   178 Broy./Diag. 0.10E-01    1.5     0.01498484     -5416.6174710308  8.60E-01
   179 Broy./Diag. 0.10E-01    1.5     0.01729213     -5417.1261224660 -5.09E-01
   180 Broy./Diag. 0.10E-01    1.5     0.07974131     -5416.2721138516  8.54E-01
   181 Broy./Diag. 0.10E-01    1.5     0.06066968     -5416.6705701640 -3.98E-01
   182 Broy./Diag. 0.10E-01    1.5     0.04710505     -5416.0823161057  5.88E-01
   183 Broy./Diag. 0.10E-01    1.5     0.00901214     -5417.3570099515 -1.27E+00
   184 Broy./Diag. 0.10E-01    1.5     0.03861933     -5417.1856978485  1.71E-01
   185 Broy./Diag. 0.10E-01    1.5     0.05174090     -5417.3453573437 -1.60E-01
   186 Broy./Diag. 0.10E-01    1.5     0.04127086     -5417.3409788636  4.38E-03
   187 Broy./Diag. 0.10E-01    1.5     0.01493695     -5417.9096436379 -5.69E-01
   188 Broy./Diag. 0.10E-01    1.5     0.00949983     -5417.9320625691 -2.24E-02
   189 Broy./Diag. 0.10E-01    1.5     0.01088532     -5417.8179800077  1.14E-01
   190 Broy./Diag. 0.10E-01    1.5     0.02657495     -5418.0787292957 -2.61E-01
   191 Broy./Diag. 0.10E-01    1.5     0.00981573     -5418.1538872736 -7.52E-02
   192 Broy./Diag. 0.10E-01    1.5     0.01336442     -5418.4820335440 -3.28E-01
   193 Broy./Diag. 0.10E-01    1.5     0.07555719     -5418.2185157150  2.64E-01
   194 Broy./Diag. 0.10E-01    1.5     0.02029224     -5417.4767275572  7.42E-01
   195 Broy./Diag. 0.10E-01    1.5     0.01360874     -5417.1830830574  2.94E-01
   196 Broy./Diag. 0.10E-01    1.5     0.10484615     -5417.0880166521  9.51E-02
   197 Broy./Diag. 0.10E-01    1.5     0.03710342     -5418.0179435129 -9.30E-01
   198 Broy./Diag. 0.10E-01    1.5     0.00408527     -5418.0316606329 -1.37E-02
   199 Broy./Diag. 0.10E-01    1.5     0.03536798     -5417.9812113664  5.04E-02
   200 Broy./Diag. 0.10E-01    1.5     0.01754688     -5417.7663047923  2.15E-01
   201 Broy./Diag. 0.10E-01    1.5     0.06014558     -5418.1050207814 -3.39E-01
   202 Broy./Diag. 0.10E-01    1.5     0.03730860     -5417.5730142100  5.32E-01
   203 Broy./Diag. 0.10E-01    1.5     0.02123110     -5417.8061835351 -2.33E-01
   204 Broy./Diag. 0.10E-01    1.5     0.01855870     -5417.6590670604  1.47E-01
   205 Broy./Diag. 0.10E-01    1.5     0.02342457     -5417.2639375130  3.95E-01
   206 Broy./Diag. 0.10E-01    1.5     0.01520888     -5417.5405470304 -2.77E-01
   207 Broy./Diag. 0.10E-01    1.5     0.01852970     -5417.4030033404  1.38E-01
   208 Broy./Diag. 0.10E-01    1.5     0.02356823     -5417.4243621711 -2.14E-02
   209 Broy./Diag. 0.10E-01    1.5     0.04368633     -5417.2484479464  1.76E-01
   210 Broy./Diag. 0.10E-01    1.5     0.07203794     -5417.1589011558  8.95E-02
   211 Broy./Diag. 0.10E-01    1.5     0.04687183     -5417.4349607035 -2.76E-01
   212 Broy./Diag. 0.10E-01    1.5     0.09124500     -5417.1790478995  2.56E-01
   213 Broy./Diag. 0.10E-01    1.5     0.00703177     -5417.4657154259 -2.87E-01
   214 Broy./Diag. 0.10E-01    1.5     0.02524065     -5417.5073507107 -4.16E-02
   215 Broy./Diag. 0.10E-01    1.5     0.02726583     -5417.6285963621 -1.21E-01
   216 Broy./Diag. 0.10E-01    1.5     0.04277049     -5417.7980172206 -1.69E-01
   217 Broy./Diag. 0.10E-01    1.5     0.01676839     -5417.5947037302  2.03E-01
   218 Broy./Diag. 0.10E-01    1.5     0.02628280     -5417.2558515293  3.39E-01
   219 Broy./Diag. 0.10E-01    1.5     0.01244165     -5417.4074150425 -1.52E-01
   220 Broy./Diag. 0.10E-01    1.5     0.00576446     -5417.5351369939 -1.28E-01
   221 Broy./Diag. 0.10E-01    1.5     0.03519596     -5417.4498744115  8.53E-02
   222 Broy./Diag. 0.10E-01    1.5     0.00618732     -5417.6983374958 -2.48E-01
   223 Broy./Diag. 0.10E-01    1.5     0.01338838     -5417.7358493725 -3.75E-02
   224 Broy./Diag. 0.10E-01    1.5     0.07008275     -5417.7231430040  1.27E-02
   225 Broy./Diag. 0.10E-01    1.5     0.08935688     -5417.2477702235  4.75E-01
   226 Broy./Diag. 0.10E-01    1.5     0.00938806     -5417.5318044301 -2.84E-01
   227 Broy./Diag. 0.10E-01    1.5     0.01251339     -5417.5098011376  2.20E-02
   228 Broy./Diag. 0.10E-01    1.5     0.04351172     -5417.3243934220  1.85E-01
   229 Broy./Diag. 0.10E-01    1.5     0.07904199     -5417.3686304699 -4.42E-02
   230 Broy./Diag. 0.10E-01    1.5     0.02000172     -5417.7641246116 -3.95E-01
   231 Broy./Diag. 0.10E-01    1.5     0.02788962     -5417.7177657886  4.64E-02
   232 Broy./Diag. 0.10E-01    1.5     0.05524774     -5417.8284646717 -1.11E-01
   233 Broy./Diag. 0.10E-01    1.5     0.06338048     -5417.4566599255  3.72E-01
   234 Broy./Diag. 0.10E-01    1.5     0.01422836     -5417.2284627279  2.28E-01
   235 Broy./Diag. 0.10E-01    1.5     0.00999617     -5417.1180130203  1.10E-01
   236 Broy./Diag. 0.10E-01    1.5     0.02701886     -5417.0352674101  8.27E-02
   237 Broy./Diag. 0.10E-01    1.5     0.08974015     -5417.2446743825 -2.09E-01
   238 Broy./Diag. 0.10E-01    1.5     0.03479091     -5417.5436814261 -2.99E-01
   239 Broy./Diag. 0.10E-01    1.5     0.02032512     -5417.4502103668  9.35E-02
   240 Broy./Diag. 0.10E-01    1.5     0.01478120     -5417.6244045818 -1.74E-01
   241 Broy./Diag. 0.10E-01    1.5     0.01570564     -5417.5599422950  6.45E-02
   242 Broy./Diag. 0.10E-01    1.5     0.01848432     -5417.7973748758 -2.37E-01
   243 Broy./Diag. 0.10E-01    1.5     0.06439020     -5417.8006195327 -3.24E-03
   244 Broy./Diag. 0.10E-01    1.5     0.07839732     -5418.1188897542 -3.18E-01
   245 Broy./Diag. 0.10E-01    1.5     0.02529948     -5417.4910858328  6.28E-01
   246 Broy./Diag. 0.10E-01    1.5     0.04948272     -5417.3775935914  1.13E-01
   247 Broy./Diag. 0.10E-01    1.5     0.05966329     -5417.2240441346  1.54E-01
   248 Broy./Diag. 0.10E-01    1.5     0.04075965     -5417.5653417875 -3.41E-01
   249 Broy./Diag. 0.10E-01    1.5     0.01216520     -5417.1691257765  3.96E-01
   250 Broy./Diag. 0.10E-01    1.5     0.05645724     -5417.3080624037 -1.39E-01
   251 Broy./Diag. 0.10E-01    1.5     0.05423225     -5418.1620060265 -8.54E-01
   252 Broy./Diag. 0.10E-01    1.5     0.01028831     -5417.3624340947  8.00E-01
   253 Broy./Diag. 0.10E-01    1.5     0.08570608     -5417.5099519268 -1.48E-01
   254 Broy./Diag. 0.10E-01    1.5     0.02678838     -5417.7027377929 -1.93E-01
   255 Broy./Diag. 0.10E-01    1.5     0.03208920     -5417.4719272097  2.31E-01
   256 Broy./Diag. 0.10E-01    1.5     0.01994672     -5417.3090805111  1.63E-01
   257 Broy./Diag. 0.10E-01    1.5     0.10808348     -5417.3365025422 -2.74E-02
   258 Broy./Diag. 0.10E-01    1.5     0.07175355     -5417.2289908922  1.08E-01
   259 Broy./Diag. 0.10E-01    1.5     0.01710801     -5417.4619097569 -2.33E-01
   260 Broy./Diag. 0.10E-01    1.5     0.04780087     -5417.8213500723 -3.59E-01
   261 Broy./Diag. 0.10E-01    1.5     0.01117794     -5418.0007177815 -1.79E-01
   262 Broy./Diag. 0.10E-01    1.5     0.03820641     -5418.3648162468 -3.64E-01
   263 Broy./Diag. 0.10E-01    1.5     0.04108166     -5418.5968080646 -2.32E-01
   264 Broy./Diag. 0.10E-01    1.5     0.02941822     -5418.1051772652  4.92E-01
   265 Broy./Diag. 0.10E-01    1.5     0.01626191     -5418.4716561678 -3.66E-01
   266 Broy./Diag. 0.10E-01    1.5     0.02451790     -5418.8676360617 -3.96E-01
   267 Broy./Diag. 0.10E-01    1.5     0.02500905     -5419.3642318035 -4.97E-01
   268 Broy./Diag. 0.10E-01    1.6     0.01034196     -5419.3533001547  1.09E-02
   269 Broy./Diag. 0.10E-01    1.5     0.02221538     -5419.3659594811 -1.27E-02
   270 Broy./Diag. 0.10E-01    1.5     0.01989363     -5418.8288257287  5.37E-01
   271 Broy./Diag. 0.10E-01    1.5     0.00680175     -5418.5852598208  2.44E-01
   272 Broy./Diag. 0.10E-01    1.5     0.02847317     -5418.4465440698  1.39E-01
   273 Broy./Diag. 0.10E-01    1.5     0.01175147     -5418.0854870322  3.61E-01
   274 Broy./Diag. 0.10E-01    1.5     0.01356171     -5418.1572547207 -7.18E-02
   275 Broy./Diag. 0.10E-01    1.5     0.01006686     -5418.2449706910 -8.77E-02
   276 Broy./Diag. 0.10E-01    1.5     0.00825580     -5418.2106162351  3.44E-02
   277 Broy./Diag. 0.10E-01    1.5     0.02884269     -5418.1230318975  8.76E-02
   278 Broy./Diag. 0.10E-01    1.5     0.01502624     -5417.9066386811  2.16E-01
   279 Broy./Diag. 0.10E-01    1.5     0.05427248     -5417.5668724866  3.40E-01
   280 Broy./Diag. 0.10E-01    1.5     0.01741501     -5417.2864693993  2.80E-01
   281 Broy./Diag. 0.10E-01    1.5     0.01447061     -5418.0065497998 -7.20E-01
   282 Broy./Diag. 0.10E-01    1.5     0.05459222     -5418.6246801478 -6.18E-01
   283 Broy./Diag. 0.10E-01    1.5     0.01704427     -5417.9112682100  7.13E-01
   284 Broy./Diag. 0.10E-01    1.5     0.01944618     -5417.4641797679  4.47E-01
   285 Broy./Diag. 0.10E-01    1.5     0.00829360     -5417.2117710233  2.52E-01
   286 Broy./Diag. 0.10E-01    1.5     0.01454627     -5417.0701223596  1.42E-01
   287 Broy./Diag. 0.10E-01    1.5     0.00542293     -5416.9943028857  7.58E-02
   288 Broy./Diag. 0.10E-01    1.5     0.00690600     -5416.9678175037  2.65E-02
   289 Broy./Diag. 0.10E-01    1.5     0.04108404     -5417.0214337229 -5.36E-02
   290 Broy./Diag. 0.10E-01    1.5     0.00840397     -5416.8105178210  2.11E-01
   291 Broy./Diag. 0.10E-01    1.5     0.01708264     -5416.7445427949  6.60E-02
   292 Broy./Diag. 0.10E-01    1.5     0.04582400     -5416.6577811099  8.68E-02
   293 Broy./Diag. 0.10E-01    1.5     0.02542009     -5416.9454902326 -2.88E-01
   294 Broy./Diag. 0.10E-01    1.5     0.05067462     -5416.6840042436  2.61E-01
   295 Broy./Diag. 0.10E-01    1.5     0.00817329     -5416.9808651292 -2.97E-01
   296 Broy./Diag. 0.10E-01    1.5     0.05687375     -5416.9026393923  7.82E-02
   297 Broy./Diag. 0.10E-01    1.5     0.07200285     -5417.4586528075 -5.56E-01
   298 Broy./Diag. 0.10E-01    1.5     0.01314910     -5418.0202073203 -5.62E-01
   299 Broy./Diag. 0.10E-01    1.5     0.03714152     -5418.3158878138 -2.96E-01
   300 Broy./Diag. 0.10E-01    1.5     0.02930075     -5417.9453209197  3.71E-01
   301 Broy./Diag. 0.10E-01    1.5     0.00804473     -5418.8710112379 -9.26E-01
   302 Broy./Diag. 0.10E-01    1.5     0.06333466     -5418.7712342119  9.98E-02
   303 Broy./Diag. 0.10E-01    1.5     0.09293414     -5418.5070862660  2.64E-01
   304 Broy./Diag. 0.10E-01    1.5     0.01259905     -5417.5282283870  9.79E-01
   305 Broy./Diag. 0.10E-01    1.5     0.02610784     -5417.4797012000  4.85E-02
   306 Broy./Diag. 0.10E-01    1.5     0.02859481     -5417.4912856624 -1.16E-02
   307 Broy./Diag. 0.10E-01    1.5     0.05773657     -5417.1207649402  3.71E-01
   308 Broy./Diag. 0.10E-01    1.5     0.01275253     -5417.0842167415  3.65E-02
   309 Broy./Diag. 0.10E-01    1.5     0.01968679     -5416.7613993697  3.23E-01
   310 Broy./Diag. 0.10E-01    1.5     0.00203271     -5416.6248567100  1.37E-01
   311 Broy./Diag. 0.10E-01    1.5     0.00733026     -5416.6042464371  2.06E-02
   312 Broy./Diag. 0.10E-01    1.5     0.01620921     -5416.3126838129  2.92E-01
   313 Broy./Diag. 0.10E-01    1.5     0.04500142     -5416.1698328303  1.43E-01
   314 Broy./Diag. 0.10E-01    1.5     0.01724874     -5416.3793644553 -2.10E-01
   315 Broy./Diag. 0.10E-01    1.5     0.02084161     -5416.4139934033 -3.46E-02
   316 Broy./Diag. 0.10E-01    1.5     0.03645441     -5416.7681822937 -3.54E-01
   317 Broy./Diag. 0.10E-01    1.5     0.03937981     -5417.1639618028 -3.96E-01
   318 Broy./Diag. 0.10E-01    1.5     0.04958863     -5417.6362217167 -4.72E-01
   319 Broy./Diag. 0.10E-01    1.5     0.02671242     -5418.4603845350 -8.24E-01
   320 Broy./Diag. 0.10E-01    1.5     0.01007002     -5417.9375398807  5.23E-01
   321 Broy./Diag. 0.10E-01    1.5     0.01711335     -5417.9138954748  2.36E-02
   322 Broy./Diag. 0.10E-01    1.5     0.03398283     -5417.6761087732  2.38E-01
   323 Broy./Diag. 0.10E-01    1.5     0.01899666     -5417.0519066935  6.24E-01
   324 Broy./Diag. 0.10E-01    1.5     0.01007031     -5417.4004081916 -3.49E-01
   325 Broy./Diag. 0.10E-01    1.5     0.03767907     -5417.3254037144  7.50E-02
   326 Broy./Diag. 0.10E-01    1.5     0.02741510     -5417.2251095660  1.00E-01
   327 Broy./Diag. 0.10E-01    1.5     0.01489630     -5416.9790737658  2.46E-01
   328 Broy./Diag. 0.10E-01    1.5     0.03268215     -5417.0074761076 -2.84E-02
   329 Broy./Diag. 0.10E-01    1.5     0.00471710     -5416.5239370271  4.84E-01
   330 Broy./Diag. 0.10E-01    1.5     0.02840186     -5416.4809852701  4.30E-02
   331 Broy./Diag. 0.10E-01    1.5     0.03119241     -5416.7034135244 -2.22E-01
   332 Broy./Diag. 0.10E-01    1.5     0.03359945     -5417.2416846712 -5.38E-01
   333 Broy./Diag. 0.10E-01    1.5     0.01860302     -5418.1584635653 -9.17E-01
   334 Broy./Diag. 0.10E-01    1.5     0.07481582     -5417.8426515369  3.16E-01
   335 Broy./Diag. 0.10E-01    1.5     0.02190929     -5418.2884559528 -4.46E-01
   336 Broy./Diag. 0.10E-01    1.5     0.06102661     -5418.0714244758  2.17E-01
   337 Broy./Diag. 0.10E-01    1.5     0.01884351     -5418.7889880525 -7.18E-01
   338 Broy./Diag. 0.10E-01    1.5     0.01709931     -5418.7675132236  2.15E-02
   339 Broy./Diag. 0.10E-01    1.5     0.00842386     -5418.7179136558  4.96E-02
   340 Broy./Diag. 0.10E-01    1.5     0.08179722     -5418.6942938026  2.36E-02
   341 Broy./Diag. 0.10E-01    1.5     0.06102239     -5418.2908312416  4.03E-01
   342 Broy./Diag. 0.10E-01    1.5     0.06438787     -5418.5385928719 -2.48E-01
   343 Broy./Diag. 0.10E-01    1.5     0.01264420     -5418.1042911945  4.34E-01
   344 Broy./Diag. 0.10E-01    1.5     0.03668181     -5418.1606459402 -5.64E-02
   345 Broy./Diag. 0.10E-01    1.5     0.09992809     -5417.8239241111  3.37E-01
   346 Broy./Diag. 0.10E-01    1.5     0.06888135     -5417.4139891758  4.10E-01
   347 Broy./Diag. 0.10E-01    1.5     0.03240355     -5418.3864829459 -9.72E-01
   348 Broy./Diag. 0.10E-01    1.5     0.05356062     -5418.1137057707  2.73E-01
   349 Broy./Diag. 0.10E-01    1.5     0.01157970     -5417.8968102497  2.17E-01
   350 Broy./Diag. 0.10E-01    1.5     0.03969576     -5417.2899523428  6.07E-01
   351 Broy./Diag. 0.10E-01    1.5     0.01316285     -5418.3712790438 -1.08E+00
   352 Broy./Diag. 0.10E-01    1.5     0.02072722     -5418.3912049677 -1.99E-02
   353 Broy./Diag. 0.10E-01    1.5     0.01847846     -5418.3280174102  6.32E-02
   354 Broy./Diag. 0.10E-01    1.5     0.04449438     -5418.2657645867  6.23E-02
   355 Broy./Diag. 0.10E-01    1.5     0.03019832     -5418.5376715465 -2.72E-01
   356 Broy./Diag. 0.10E-01    1.5     0.03787348     -5418.4231142424  1.15E-01
   357 Broy./Diag. 0.10E-01    1.5     0.03762772     -5418.4744137626 -5.13E-02
   358 Broy./Diag. 0.10E-01    1.5     0.02120651     -5418.4220620551  5.24E-02
   359 Broy./Diag. 0.10E-01    1.5     0.05429880     -5417.7605579264  6.62E-01
   360 Broy./Diag. 0.10E-01    1.5     0.01917871     -5417.3371713849  4.23E-01
   361 Broy./Diag. 0.10E-01    1.5     0.04639535     -5417.7436907282 -4.07E-01
   362 Broy./Diag. 0.10E-01    1.5     0.03627904     -5417.8941510120 -1.50E-01
   363 Broy./Diag. 0.10E-01    1.5     0.03471347     -5418.1117490184 -2.18E-01
   364 Broy./Diag. 0.10E-01    1.5     0.01428572     -5418.1100792016  1.67E-03
   365 Broy./Diag. 0.10E-01    1.5     0.04683417     -5418.2664581939 -1.56E-01
   366 Broy./Diag. 0.10E-01    1.5     0.01568552     -5418.3005493327 -3.41E-02
   367 Broy./Diag. 0.10E-01    1.5     0.03428402     -5418.1870554226  1.13E-01
   368 Broy./Diag. 0.10E-01    1.5     0.02243678     -5418.5210593393 -3.34E-01
   369 Broy./Diag. 0.10E-01    1.5     0.02323356     -5419.0032227155 -4.82E-01
