      60
 i =        1, E =     -7949.3259977937
 Pt        -3.0942212118        5.4136151917        8.0986618514
 Pt         1.5959729122        5.4139262310        8.1170964497
 Pt        -0.7351499097        1.3540771333        8.1609218555
 Pt         3.9549255689        1.3528506955        8.1627855707
 Pt         1.5881389456        2.7061198181        8.1320546871
 Pt         6.2781986347        2.7060361080        8.1268257558
 Pt         6.2719909857       -0.0009152411        8.1488830901
 Pt         1.5838512039       -0.0011069937        8.1351989735
 Pt        -0.7283402963        6.7654470552        8.1782372278
 Pt         3.9622253783        6.7643331726        8.1810762401
 Pt        -0.7231983953        4.0621652371        8.1930167747
 Pt         3.9678539078        4.0616500824        8.1953685941
 Ni         0.0329018953        5.4299849007       10.3762336422
 Ni         4.7269505011        2.6952427133       10.3754051368
 Ni         0.0160000000        0.0150000000       10.3730000000
 Ni         4.7050000000        5.4260000000       10.3920000000
 Pt        -2.3310000000        4.0520000000       10.3920000000
 Pt        -2.3180000000        6.7740000000       10.3940000000
 Ni         0.0080000000        2.6910000000       10.3950000000
 Ni         4.6860000000        0.0040000000       10.4010000000
 Pt         2.3650000000        4.0810000000       10.4020000000
 Pt         2.3960000000        1.3360000000       10.4050000000
 Pt         2.3780000000        6.7430000000       10.4060000000
 Pt         7.0860000000        1.3800000000       10.4080000000
 Pt        -3.9070000000        6.7680000000       12.5310000000
 Pt        -1.5630000000        5.4150000000       12.5310000000
 Ni        -1.5630000000        2.7070000000       12.5310000000
 Pt         0.7810000000        4.0610000000       12.5310000000
 Pt         0.7820000000        1.3540000000       12.5310000000
 Pt         0.7820000000        6.7680000000       12.5310000000
 Ni         3.1260000000        0.0000000000       12.5310000000
 Pt         3.1260000000        2.7070000000       12.5310000000
 Ni         3.1260000000        5.4150000000       12.5310000000
 Pt         5.4700000000        4.0610000000       12.5310000000
 Pt         5.4710000000        1.3540000000       12.5310000000
 Pt         7.8150000000        0.0000000000       12.5310000000
 Pt        -0.8320000000        1.3780000000       14.6550000000
 Pt         3.8770000000        6.7430000000       14.6550000000
 Pt         3.8570000000        1.3360000000       14.6570000000
 Pt         3.8930000000        4.0800000000       14.6600000000
 Ni         6.2490000000        2.6890000000       14.6640000000
 Pt        -0.8060000000        6.7750000000       14.6640000000
 Ni         1.5680000000        0.0050000000       14.6650000000
 Pt        -0.7900000000        4.0510000000       14.6670000000
 Ni         1.5530000000        5.4270000000       14.6680000000
 Ni         6.2380000000        0.0140000000       14.6910000000
 Ni        -3.1570000000        5.4280000000       14.6920000000
 Ni         1.5410000000        2.6790000000       14.6930000000
 Pt         2.2960000000        4.0600000000       16.8370000000
 Pt        -2.3960000000        4.0570000000       16.8390000000
 Pt         2.3022483686        6.7642824904       16.8826808910
 Pt        -2.3847438238        6.7657679483       16.8862268424
 Pt         4.6796948461       -0.0005218349       16.9248839975
 Pt        -0.0077409089       -0.0000397027       16.9128035721
 Pt        -0.0137429851        2.7066555798       16.9329572601
 Pt         4.6760272844        2.7054964917       16.9274186055
 Pt         6.9991738866        1.3533172723       16.9033224527
 Pt         2.3100330613        1.3521090935       16.9060428268
 Pt         4.6683277732        5.4147313065       16.9431952628
 Pt        -0.0189825977        5.4135080654       16.9565603057
      60
 i =        2, E =     -7949.3262921050
 Pt        -3.1001168919        5.4148980352        8.1128815964
 Pt         1.5912456936        5.4146433567        8.1251197557
 Pt        -0.7299482261        1.3537321420        8.1715495423
 Pt         3.9591207512        1.3518747382        8.1745018598
 Pt         1.5889258090        2.7045955326        8.1314806499
 Pt         6.2802380686        2.7033999700        8.1221101399
 Pt         6.2770285761        0.0005771770        8.1400388444
 Pt         1.5908536566        0.0014710658        8.1257845899
 Pt        -0.7290385168        6.7687365900        8.1758933416
 Pt         3.9590364447        6.7679677787        8.1785177193
 Pt        -0.7278333344        4.0597621078        8.1822239797
 Pt         3.9597765968        4.0594785576        8.1844744097
 Ni         0.0308628729        5.4269248624       10.3766843232
 Ni         4.7248233073        2.6920312019       10.3760041747
 Ni         0.0160000000        0.0150000000       10.3730000000
 Ni         4.7050000000        5.4260000000       10.3920000000
 Pt        -2.3310000000        4.0520000000       10.3920000000
 Pt        -2.3180000000        6.7740000000       10.3940000000
 Ni         0.0080000000        2.6910000000       10.3950000000
 Ni         4.6860000000        0.0040000000       10.4010000000
 Pt         2.3650000000        4.0810000000       10.4020000000
 Pt         2.3960000000        1.3360000000       10.4050000000
 Pt         2.3780000000        6.7430000000       10.4060000000
 Pt         7.0860000000        1.3800000000       10.4080000000
 Pt        -3.9070000000        6.7680000000       12.5310000000
 Pt        -1.5630000000        5.4150000000       12.5310000000
 Ni        -1.5630000000        2.7070000000       12.5310000000
 Pt         0.7810000000        4.0610000000       12.5310000000
 Pt         0.7820000000        1.3540000000       12.5310000000
 Pt         0.7820000000        6.7680000000       12.5310000000
 Ni         3.1260000000       -0.0000000000       12.5310000000
 Pt         3.1260000000        2.7070000000       12.5310000000
 Ni         3.1260000000        5.4150000000       12.5310000000
 Pt         5.4700000000        4.0610000000       12.5310000000
 Pt         5.4710000000        1.3540000000       12.5310000000
 Pt         7.8150000000        0.0000000000       12.5310000000
 Pt        -0.8320000000        1.3780000000       14.6550000000
 Pt         3.8770000000        6.7430000000       14.6550000000
 Pt         3.8570000000        1.3360000000       14.6570000000
 Pt         3.8930000000        4.0800000000       14.6600000000
 Ni         6.2490000000        2.6890000000       14.6640000000
 Pt        -0.8060000000        6.7750000000       14.6640000000
 Ni         1.5680000000        0.0050000000       14.6650000000
 Pt        -0.7900000000        4.0510000000       14.6670000000
 Ni         1.5530000000        5.4270000000       14.6680000000
 Ni         6.2380000000        0.0140000000       14.6910000000
 Ni        -3.1570000000        5.4280000000       14.6920000000
 Ni         1.5410000000        2.6790000000       14.6930000000
 Pt         2.2960000000        4.0600000000       16.8370000000
 Pt        -2.3960000000        4.0570000000       16.8390000000
 Pt         2.3041304655        6.7680745500       16.8846599167
 Pt        -2.3847702113        6.7679551016       16.8881740252
 Pt         4.6724315573       -0.0005778363       16.9351980484
 Pt        -0.0137239247       -0.0005882221       16.9227877398
 Pt        -0.0186471665        2.7024586156       16.9363478007
 Pt         4.6723691640        2.7024698333       16.9283369403
 Pt         6.9929488672        1.3518075138       16.8925283446
 Pt         2.3043956517        1.3499029296       16.8943500615
 Pt         4.6701106002        5.4155720291       16.9355685188
 Pt        -0.0165942413        5.4147520139       16.9424679447
      60
 i =        3, E =     -7949.3263097562
 Pt        -3.1017424498        5.4142946990        8.1138075807
 Pt         1.5902037571        5.4144497123        8.1247035077
 Pt        -0.7293790794        1.3539730417        8.1710696360
 Pt         3.9607540910        1.3525853897        8.1741520119
 Pt         1.5886989410        2.7059016056        8.1312686544
 Pt         6.2799480569        2.7052196019        8.1223053759
 Pt         6.2775837773       -0.0000442472        8.1397386708
 Pt         1.5907872963        0.0003592294        8.1267357543
 Pt        -0.7293697651        6.7679929344        8.1756477404
 Pt         3.9592173969        6.7675410063        8.1783753362
 Pt        -0.7290589227        4.0604291925        8.1815529238
 Pt         3.9596805190        4.0604438717        8.1837020837
 Ni         0.0291793094        5.4273607946       10.3764775005
 Ni         4.7241913018        2.6936302149       10.3757861271
 Ni         0.0160000000        0.0150000000       10.3730000000
 Ni         4.7050000000        5.4260000000       10.3920000000
 Pt        -2.3310000000        4.0520000000       10.3920000000
 Pt        -2.3180000000        6.7740000000       10.3940000000
 Ni         0.0080000000        2.6910000000       10.3950000000
 Ni         4.6860000000        0.0040000000       10.4010000000
 Pt         2.3650000000        4.0810000000       10.4020000000
 Pt         2.3960000000        1.3360000000       10.4050000000
 Pt         2.3780000000        6.7430000000       10.4060000000
 Pt         7.0860000000        1.3800000000       10.4080000000
 Pt        -3.9070000000        6.7680000000       12.5310000000
 Pt        -1.5630000000        5.4150000000       12.5310000000
 Ni        -1.5630000000        2.7070000000       12.5310000000
 Pt         0.7810000000        4.0610000000       12.5310000000
 Pt         0.7820000000        1.3540000000       12.5310000000
 Pt         0.7820000000        6.7680000000       12.5310000000
 Ni         3.1260000000        0.0000000000       12.5310000000
 Pt         3.1260000000        2.7070000000       12.5310000000
 Ni         3.1260000000        5.4150000000       12.5310000000
 Pt         5.4700000000        4.0610000000       12.5310000000
 Pt         5.4710000000        1.3540000000       12.5310000000
 Pt         7.8150000000        0.0000000000       12.5310000000
 Pt        -0.8320000000        1.3780000000       14.6550000000
 Pt         3.8770000000        6.7430000000       14.6550000000
 Pt         3.8570000000        1.3360000000       14.6570000000
 Pt         3.8930000000        4.0800000000       14.6600000000
 Ni         6.2490000000        2.6890000000       14.6640000000
 Pt        -0.8060000000        6.7750000000       14.6640000000
 Ni         1.5680000000        0.0050000000       14.6650000000
 Pt        -0.7900000000        4.0510000000       14.6670000000
 Ni         1.5530000000        5.4270000000       14.6680000000
 Ni         6.2380000000        0.0140000000       14.6910000000
 Ni        -3.1570000000        5.4280000000       14.6920000000
 Ni         1.5410000000        2.6790000000       14.6930000000
 Pt         2.2960000000        4.0600000000       16.8370000000
 Pt        -2.3960000000        4.0570000000       16.8390000000
 Pt         2.3021665784        6.7673861054       16.8847098212
 Pt        -2.3865627673        6.7671797014       16.8880482750
 Pt         4.6706163101       -0.0010243534       16.9348437748
 Pt        -0.0159788304       -0.0009763013       16.9237762564
 Pt        -0.0201110397        2.7036931418       16.9357737638
 Pt         4.6706331592        2.7034140409       16.9281661181
 Pt         6.9903636581        1.3520572777       16.8927683620
 Pt         2.3014272263        1.3502369518       16.8944688583
 Pt         4.6689299825        5.4148713190       16.9361554625
 Pt        -0.0169200223        5.4141020645       16.9417669216
      60
 i =        4, E =     -7949.3263178381
 Pt        -3.1023204897        5.4145657642        8.1137061143
 Pt         1.5895887331        5.4145707635        8.1241708653
 Pt        -0.7295062149        1.3542549967        8.1704614705
 Pt         3.9607343691        1.3528326109        8.1738231017
 Pt         1.5884518615        2.7062667860        8.1312413192
 Pt         6.2796258300        2.7056133404        8.1225191559
 Pt         6.2774633933        0.0000514099        8.1398301810
 Pt         1.5904133746        0.0005723976        8.1278232968
 Pt        -0.7295592922        6.7682307482        8.1755580518
 Pt         3.9588425117        6.7678394939        8.1783203145
 Pt        -0.7294374796        4.0606742661        8.1809759979
 Pt         3.9592216520        4.0606635582        8.1833077982
 Ni         0.0278104582        5.4267196731       10.3762577095
 Ni         4.7237619900        2.6937823610       10.3756670133
 Ni         0.0160000000        0.0150000000       10.3730000000
 Ni         4.7050000000        5.4260000000       10.3920000000
 Pt        -2.3310000000        4.0520000000       10.3920000000
 Pt        -2.3180000000        6.7740000000       10.3940000000
 Ni         0.0080000000        2.6910000000       10.3950000000
 Ni         4.6860000000        0.0040000000       10.4010000000
 Pt         2.3650000000        4.0810000000       10.4020000000
 Pt         2.3960000000        1.3360000000       10.4050000000
 Pt         2.3780000000        6.7430000000       10.4060000000
 Pt         7.0860000000        1.3800000000       10.4080000000
 Pt        -3.9070000000        6.7680000000       12.5310000000
 Pt        -1.5630000000        5.4150000000       12.5310000000
 Ni        -1.5630000000        2.7070000000       12.5310000000
 Pt         0.7810000000        4.0610000000       12.5310000000
 Pt         0.7820000000        1.3540000000       12.5310000000
 Pt         0.7820000000        6.7680000000       12.5310000000
 Ni         3.1260000000        0.0000000000       12.5310000000
 Pt         3.1260000000        2.7070000000       12.5310000000
 Ni         3.1260000000        5.4150000000       12.5310000000
 Pt         5.4700000000        4.0610000000       12.5310000000
 Pt         5.4710000000        1.3540000000       12.5310000000
 Pt         7.8150000000       -0.0000000000       12.5310000000
 Pt        -0.8320000000        1.3780000000       14.6550000000
 Pt         3.8770000000        6.7430000000       14.6550000000
 Pt         3.8570000000        1.3360000000       14.6570000000
 Pt         3.8930000000        4.0800000000       14.6600000000
 Ni         6.2490000000        2.6890000000       14.6640000000
 Pt        -0.8060000000        6.7750000000       14.6640000000
 Ni         1.5680000000        0.0050000000       14.6650000000
 Pt        -0.7900000000        4.0510000000       14.6670000000
 Ni         1.5530000000        5.4270000000       14.6680000000
 Ni         6.2380000000        0.0140000000       14.6910000000
 Ni        -3.1570000000        5.4280000000       14.6920000000
 Ni         1.5410000000        2.6790000000       14.6930000000
 Pt         2.2960000000        4.0600000000       16.8370000000
 Pt        -2.3960000000        4.0570000000       16.8390000000
 Pt         2.2997665614        6.7673255840       16.8843637472
 Pt        -2.3891750437        6.7670852798       16.8875162853
 Pt         4.6681774875       -0.0011264496       16.9342872843
 Pt        -0.0186917381       -0.0011744354       16.9242973042
 Pt        -0.0217545438        2.7038697575       16.9355356818
 Pt         4.6688108433        2.7035886950       16.9282598547
 Pt         6.9878756098        1.3520279708       16.8928558043
 Pt         2.2987667738        1.3500193240       16.8944410434
 Pt         4.6672455408        5.4146636147       16.9371044278
 Pt        -0.0184606153        5.4140289246       16.9419934328
      60
 i =        5, E =     -7949.3263214856
 Pt        -3.1025162185        5.4149172620        8.1135209542
 Pt         1.5893814428        5.4149188523        8.1242433519
 Pt        -0.7302549497        1.3546144653        8.1702501303
 Pt         3.9600040720        1.3530727754        8.1736666467
 Pt         1.5880199609        2.7064522631        8.1312899163
 Pt         6.2791722410        2.7056885848        8.1226711176
 Pt         6.2768917866        0.0004618824        8.1400594678
 Pt         1.5898051817        0.0010618658        8.1282520482
 Pt        -0.7299580522        6.7686693647        8.1755167354
 Pt         3.9582820313        6.7681893524        8.1782952726
 Pt        -0.7298176444        4.0608772503        8.1806546053
 Pt         3.9587757603        4.0609115285        8.1832230502
 Ni         0.0265665485        5.4260537972       10.3762549642
 Ni         4.7236015502        2.6935919754       10.3756116849
 Ni         0.0160000000        0.0150000000       10.3730000000
 Ni         4.7050000000        5.4260000000       10.3920000000
 Pt        -2.3310000000        4.0520000000       10.3920000000
 Pt        -2.3180000000        6.7740000000       10.3940000000
 Ni         0.0080000000        2.6910000000       10.3950000000
 Ni         4.6860000000        0.0040000000       10.4010000000
 Pt         2.3650000000        4.0810000000       10.4020000000
 Pt         2.3960000000        1.3360000000       10.4050000000
 Pt         2.3780000000        6.7430000000       10.4060000000
 Pt         7.0860000000        1.3800000000       10.4080000000
 Pt        -3.9070000000        6.7680000000       12.5310000000
 Pt        -1.5630000000        5.4150000000       12.5310000000
 Ni        -1.5630000000        2.7070000000       12.5310000000
 Pt         0.7810000000        4.0610000000       12.5310000000
 Pt         0.7820000000        1.3540000000       12.5310000000
 Pt         0.7820000000        6.7680000000       12.5310000000
 Ni         3.1260000000        0.0000000000       12.5310000000
 Pt         3.1260000000        2.7070000000       12.5310000000
 Ni         3.1260000000        5.4150000000       12.5310000000
 Pt         5.4700000000        4.0610000000       12.5310000000
 Pt         5.4710000000        1.3540000000       12.5310000000
 Pt         7.8150000000        0.0000000000       12.5310000000
 Pt        -0.8320000000        1.3780000000       14.6550000000
 Pt         3.8770000000        6.7430000000       14.6550000000
 Pt         3.8570000000        1.3360000000       14.6570000000
 Pt         3.8930000000        4.0800000000       14.6600000000
 Ni         6.2490000000        2.6890000000       14.6640000000
 Pt        -0.8060000000        6.7750000000       14.6640000000
 Ni         1.5680000000        0.0050000000       14.6650000000
 Pt        -0.7900000000        4.0510000000       14.6670000000
 Ni         1.5530000000        5.4270000000       14.6680000000
 Ni         6.2380000000        0.0140000000       14.6910000000
 Ni        -3.1570000000        5.4280000000       14.6920000000
 Ni         1.5410000000        2.6790000000       14.6930000000
 Pt         2.2960000000        4.0600000000       16.8370000000
 Pt        -2.3960000000        4.0570000000       16.8390000000
 Pt         2.2975087006        6.7674329419       16.8837929784
 Pt        -2.3915886625        6.7672269843       16.8868480058
 Pt         4.6656546124       -0.0010573819       16.9343808223
 Pt        -0.0213141962       -0.0011638484       16.9247335584
 Pt        -0.0231933347        2.7037197378       16.9358736875
 Pt         4.6673554642        2.7035285809       16.9287203921
 Pt         6.9857987824        1.3519855186       16.8924130267
 Pt         2.2966897739        1.3498621662       16.8939387807
 Pt         4.6655606658        5.4144962283       16.9377363356
 Pt        -0.0202580274        5.4138779187       16.9426466358
      60
 i =        6, E =     -7949.3263219568
 Pt        -3.1026018620        5.4151338425        8.1134240186
 Pt         1.5891522204        5.4150924535        8.1245094359
 Pt        -0.7305724129        1.3547383136        8.1702893406
 Pt         3.9594948680        1.3531950795        8.1736245535
 Pt         1.5876905979        2.7064906517        8.1313947018
 Pt         6.2788624721        2.7056833746        8.1226717724
 Pt         6.2764498573        0.0006561453        8.1402229699
 Pt         1.5894763632        0.0012970217        8.1280801565
 Pt        -0.7302198074        6.7688625793        8.1755176624
 Pt         3.9580535144        6.7683641869        8.1782847958
 Pt        -0.7299406665        4.0609941376        8.1807122413
 Pt         3.9585709245        4.0610159074        8.1833900615
 Ni         0.0262248858        5.4257821378       10.3763656046
 Ni         4.7237097929        2.6934852972       10.3756513406
 Ni         0.0160000000        0.0150000000       10.3730000000
 Ni         4.7050000000        5.4260000000       10.3920000000
 Pt        -2.3310000000        4.0520000000       10.3920000000
 Pt        -2.3180000000        6.7740000000       10.3940000000
 Ni         0.0080000000        2.6910000000       10.3950000000
 Ni         4.6860000000        0.0040000000       10.4010000000
 Pt         2.3650000000        4.0810000000       10.4020000000
 Pt         2.3960000000        1.3360000000       10.4050000000
 Pt         2.3780000000        6.7430000000       10.4060000000
 Pt         7.0860000000        1.3800000000       10.4080000000
 Pt        -3.9070000000        6.7680000000       12.5310000000
 Pt        -1.5630000000        5.4150000000       12.5310000000
 Ni        -1.5630000000        2.7070000000       12.5310000000
 Pt         0.7810000000        4.0610000000       12.5310000000
 Pt         0.7820000000        1.3540000000       12.5310000000
 Pt         0.7820000000        6.7680000000       12.5310000000
 Ni         3.1260000000        0.0000000000       12.5310000000
 Pt         3.1260000000        2.7070000000       12.5310000000
 Ni         3.1260000000        5.4150000000       12.5310000000
 Pt         5.4700000000        4.0610000000       12.5310000000
 Pt         5.4710000000        1.3540000000       12.5310000000
 Pt         7.8150000000        0.0000000000       12.5310000000
 Pt        -0.8320000000        1.3780000000       14.6550000000
 Pt         3.8770000000        6.7430000000       14.6550000000
 Pt         3.8570000000        1.3360000000       14.6570000000
 Pt         3.8930000000        4.0800000000       14.6600000000
 Ni         6.2490000000        2.6890000000       14.6640000000
 Pt        -0.8060000000        6.7750000000       14.6640000000
 Ni         1.5680000000        0.0050000000       14.6650000000
 Pt        -0.7900000000        4.0510000000       14.6670000000
 Ni         1.5530000000        5.4270000000       14.6680000000
 Ni         6.2380000000        0.0140000000       14.6910000000
 Ni        -3.1570000000        5.4280000000       14.6920000000
 Ni         1.5410000000        2.6790000000       14.6930000000
 Pt         2.2960000000        4.0600000000       16.8370000000
 Pt        -2.3960000000        4.0570000000       16.8390000000
 Pt         2.2969948699        6.7674334463       16.8835555853
 Pt        -2.3920272546        6.7672805680       16.8866622710
 Pt         4.6651372861       -0.0010584657       16.9347207493
 Pt        -0.0217650475       -0.0011316631       16.9247769506
 Pt        -0.0234308908        2.7036830027       16.9361590873
 Pt         4.6671490259        2.7034956433       16.9289466248
 Pt         6.9854173266        1.3519221323       16.8921658289
 Pt         2.2963601912        1.3498296035       16.8937359094
 Pt         4.6652748805        5.4145361355       16.9377205614
 Pt        -0.0206717333        5.4138794985       16.9429810013
      60
 i =        7, E =     -7949.3267547690
 Pt        -3.1026018620        5.4151338425        8.1134240186
 Pt         1.5891522204        5.4150924535        8.1245094359
 Pt        -0.7305724129        1.3547383136        8.1702893406
 Pt         3.9594948680        1.3531950795        8.1736245535
 Pt         1.5876905979        2.7064906517        8.1313947018
 Pt         6.2788624721        2.7056833746        8.1226717724
 Pt         6.2764498573        0.0006561453        8.1402229699
 Pt         1.5894763632        0.0012970217        8.1280801565
 Pt        -0.7302198074        6.7688625793        8.1755176624
 Pt         3.9580535144        6.7683641869        8.1782847958
 Pt        -0.7299406665        4.0609941376        8.1807122413
 Pt         3.9585709245        4.0610159074        8.1833900615
 Ni         0.0262248858        5.4257821378       10.3763656046
 Ni         4.7237097929        2.6934852972       10.3756513406
 Ni         0.0160000000        0.0150000000       10.3730000000
 Ni         4.7050000000        5.4260000000       10.3920000000
 Pt        -2.3310000000        4.0520000000       10.3920000000
 Pt        -2.3180000000        6.7740000000       10.3940000000
 Ni         0.0080000000        2.6910000000       10.3950000000
 Ni         4.6860000000        0.0040000000       10.4010000000
 Pt         2.3650000000        4.0810000000       10.4020000000
 Pt         2.3960000000        1.3360000000       10.4050000000
 Pt         2.3780000000        6.7430000000       10.4060000000
 Pt         7.0860000000        1.3800000000       10.4080000000
 Pt        -3.9070000000        6.7680000000       12.5310000000
 Pt        -1.5630000000        5.4150000000       12.5310000000
 Ni        -1.5630000000        2.7070000000       12.5310000000
 Pt         0.7810000000        4.0610000000       12.5310000000
 Pt         0.7820000000        1.3540000000       12.5310000000
 Pt         0.7820000000        6.7680000000       12.5310000000
 Ni         3.1260000000        0.0000000000       12.5310000000
 Pt         3.1260000000        2.7070000000       12.5310000000
 Ni         3.1260000000        5.4150000000       12.5310000000
 Pt         5.4700000000        4.0610000000       12.5310000000
 Pt         5.4710000000        1.3540000000       12.5310000000
 Pt         7.8150000000        0.0000000000       12.5310000000
 Pt        -0.8320000000        1.3780000000       14.6550000000
 Pt         3.8770000000        6.7430000000       14.6550000000
 Pt         3.8570000000        1.3360000000       14.6570000000
 Pt         3.8930000000        4.0800000000       14.6600000000
 Ni         6.2490000000        2.6890000000       14.6640000000
 Pt        -0.8060000000        6.7750000000       14.6640000000
 Ni         1.5680000000        0.0050000000       14.6650000000
 Pt        -0.7900000000        4.0510000000       14.6670000000
 Ni         1.5530000000        5.4270000000       14.6680000000
 Ni         6.2380000000        0.0140000000       14.6910000000
 Ni        -3.1570000000        5.4280000000       14.6920000000
 Ni         1.5410000000        2.6790000000       14.6930000000
 Pt         2.2960000000        4.0600000000       16.8370000000
 Pt        -2.3960000000        4.0570000000       16.8390000000
 Pt         2.2969948699        6.7674334463       16.8835555853
 Pt        -2.3920272546        6.7672805680       16.8866622710
 Pt         4.6651372861       -0.0010584657       16.9347207493
 Pt        -0.0217650475       -0.0011316631       16.9247769506
 Pt        -0.0234308908        2.7036830027       16.9361590873
 Pt         4.6671490259        2.7034956433       16.9289466248
 Pt         6.9854173266        1.3519221323       16.8921658289
 Pt         2.2963601912        1.3498296035       16.8937359094
 Pt         4.6652748805        5.4145361355       16.9377205614
 Pt        -0.0206717333        5.4138794985       16.9429810013
