 DBCSR| CPU Multiplication driver                                           XSMM (U)
 DBCSR| Multrec recursion limit                                              512 (U)
 DBCSR| Multiplication stack size                                           1000 (D)
 DBCSR| Maximum elements for images                                    UNLIMITED (U)
 DBCSR| Multiplicative factor virtual images                                   1 (U)
 DBCSR| Use multiplication densification                                       T (D)
 DBCSR| Multiplication size stacks                                             3 (U)
 DBCSR| Use memory pool for CPU allocation                                     F (U)
 DBCSR| Number of 3D layers                                               SINGLE (U)
 DBCSR| Use MPI memory allocation                                              F (U)
 DBCSR| Use RMA algorithm                                                      F (U)
 DBCSR| Use Communication thread                                               T (U)
 DBCSR| Communication thread load                                             87 (D)
 DBCSR| MPI: My process id                                                     0
 DBCSR| MPI: Number of processes                                             128
 DBCSR| OMP: Current number of threads                                         1
 DBCSR| OMP: Max number of threads                                             1
 DBCSR| Split modifier for TAS multiplication algorithm                  1.0E+00 (U)


  **** **** ******  **  PROGRAM STARTED AT               2023-02-15 17:00:29.183
 ***** ** ***  *** **   PROGRAM STARTED ON                             nid001542
 **    ****   ******    PROGRAM STARTED BY                                cahart
 ***** **    ** ** **   PROGRAM PROCESS ID                                241312
  **** **  *******  **  PROGRAM STARTED IN /mnt/lustre/a2fs-work2/work/e05/e05/c
                                           ahart/postdoc/masters/ni/archer2/slab
                                           /optimise/magnetisation/scf_1e-4_temp
                                           -2000_mos-1000_alpha-0.08_beta-1.5_pe
                                           riodic-xyz/search/0.66_0.8

 CP2K| version string:                 CP2K version 2023.1 (Development Version)
 CP2K| source code revision number:                                  git:964cd58
 CP2K| cp2kflags: omp libint fftw3 libxc elpa parallel scalapack xsmm plumed2 mk
 CP2K|            l
 CP2K| is freely available from                            https://www.cp2k.org/
 CP2K| Program compiled at                          Mon 13 Feb 17:05:14 GMT 2023
 CP2K| Program compiled on                                                  ln01
 CP2K| Program compiled for                                              ARCHER2
 CP2K| Data directory path    /work/e05/e05/cahart/cp2k/cp2k-2023.1/cp2k-2023.1-
 CP2K| Input file name                                                  cp2k.inp

 GLOBAL| Force Environment number                                              1
 GLOBAL| Basis set file name                                        BASIS_MOLOPT
 GLOBAL| Potential file name                                      GTH_POTENTIALS
 GLOBAL| MM Potential file name                                     MM_POTENTIAL
 GLOBAL| Coordinate file name                                      __STD_INPUT__
 GLOBAL| Method name                                                        CP2K
 GLOBAL| Project name                                                    Ni_bulk
 GLOBAL| Run type                                                         ENERGY
 GLOBAL| FFT library                                                       FFTW3
 GLOBAL| Diagonalization library                                            ELPA
 GLOBAL| DGEMM library                                                      BLAS
 GLOBAL| Minimum number of eigenvectors for ELPA usage                        16
 GLOBAL| Orthonormality check for eigenvectors                          DISABLED
 GLOBAL| Matrix multiplication library                                 ScaLAPACK
 GLOBAL| All-to-all communication in single precision                          F
 GLOBAL| FFTs using library dependent lengths                                  F
 GLOBAL| Grid backend                                                       AUTO
 GLOBAL| Global print level                                               MEDIUM
 GLOBAL| MPI I/O enabled                                                       T
 GLOBAL| Total number of message passing processes                           128
 GLOBAL| Number of threads for this process                                    1
 GLOBAL| This output is from process                                           0
 GLOBAL| Stack size for threads created by OpenMP (OMP_STACKSIZE)        default
 GLOBAL| CPU model name                          AMD EPYC 7742 64-Core Processor
 GLOBAL| CPUID                                                              1002

 MEMORY| system memory details [Kb]
 MEMORY|                        rank 0           min           max       average
 MEMORY| MemTotal            263528068     263528068     263528068     263528068
 MEMORY| MemFree             239043388     239043388     239043388     239043388
 MEMORY| Buffers                 25268         25268         25268         25268
 MEMORY| Cached                 612276        612276        612276        612276
 MEMORY| Slab                  1536132       1536132       1536132       1536132
 MEMORY| SReclaimable           101544        101544        101544        101544
 MEMORY| MemLikelyFree       239782476     239782476     239782476     239782476


 *** Fundamental physical constants (SI units) ***

 *** Literature: B. J. Mohr and B. N. Taylor,
 ***             CODATA recommended values of the fundamental physical
 ***             constants: 2006, Web Version 5.1
 ***             http://physics.nist.gov/constants

 Speed of light in vacuum [m/s]                             2.99792458000000E+08
 Magnetic constant or permeability of vacuum [N/A**2]       1.25663706143592E-06
 Electric constant or permittivity of vacuum [F/m]          8.85418781762039E-12
 Planck constant (h) [J*s]                                  6.62606896000000E-34
 Planck constant (h-bar) [J*s]                              1.05457162825177E-34
 Elementary charge [C]                                      1.60217648700000E-19
 Electron mass [kg]                                         9.10938215000000E-31
 Electron g factor [ ]                                     -2.00231930436220E+00
 Proton mass [kg]                                           1.67262163700000E-27
 Fine-structure constant                                    7.29735253760000E-03
 Rydberg constant [1/m]                                     1.09737315685270E+07
 Avogadro constant [1/mol]                                  6.02214179000000E+23
 Boltzmann constant [J/K]                                   1.38065040000000E-23
 Atomic mass unit [kg]                                      1.66053878200000E-27
 Bohr radius [m]                                            5.29177208590000E-11

 *** Conversion factors ***

 [u] -> [a.u.]                                              1.82288848426455E+03
 [Angstrom] -> [Bohr] = [a.u.]                              1.88972613288564E+00
 [a.u.] = [Bohr] -> [Angstrom]                              5.29177208590000E-01
 [a.u.] -> [s]                                              2.41888432650478E-17
 [a.u.] -> [fs]                                             2.41888432650478E-02
 [a.u.] -> [J]                                              4.35974393937059E-18
 [a.u.] -> [N]                                              8.23872205491840E-08
 [a.u.] -> [K]                                              3.15774647902944E+05
 [a.u.] -> [kJ/mol]                                         2.62549961709828E+03
 [a.u.] -> [kcal/mol]                                       6.27509468713739E+02
 [a.u.] -> [Pa]                                             2.94210107994716E+13
 [a.u.] -> [bar]                                            2.94210107994716E+08
 [a.u.] -> [atm]                                            2.90362800883016E+08
 [a.u.] -> [eV]                                             2.72113838565563E+01
 [a.u.] -> [Hz]                                             6.57968392072181E+15
 [a.u.] -> [1/cm] (wave numbers)                            2.19474631370540E+05
 [a.u./Bohr**2] -> [1/cm]                                   5.14048714338585E+03
 

 CELL_TOP| Volume [angstrom^3]:                                       983.249569
 CELL_TOP| Vector a [angstrom     7.012     0.000     0.000   |a| =     7.011596
 CELL_TOP| Vector b [angstrom     0.000     7.012     0.000   |b| =     7.011596
 CELL_TOP| Vector c [angstrom     0.000     0.000    20.000   |c| =    20.000000
 CELL_TOP| Angle (b,c), alpha [degree]:                                90.000000
 CELL_TOP| Angle (a,c), beta  [degree]:                                90.000000
 CELL_TOP| Angle (a,b), gamma [degree]:                                90.000000
 CELL_TOP| Numerically orthorhombic:                                         YES
 CELL_TOP| Periodicity                                                       XYZ

 GENERATE|  Preliminary Number of Bonds generated:                             0
 GENERATE|  Achieved consistency in connectivity generation.

 CELL| Volume [angstrom^3]:                                           983.249569
 CELL| Vector a [angstrom]:       7.012     0.000     0.000   |a| =     7.011596
 CELL| Vector b [angstrom]:       0.000     7.012     0.000   |b| =     7.011596
 CELL| Vector c [angstrom]:       0.000     0.000    20.000   |c| =    20.000000
 CELL| Angle (b,c), alpha [degree]:                                    90.000000
 CELL| Angle (a,c), beta  [degree]:                                    90.000000
 CELL| Angle (a,b), gamma [degree]:                                    90.000000
 CELL| Numerically orthorhombic:                                             YES
 CELL| Periodicity                                                           XYZ

 CELL_REF| Volume [angstrom^3]:                                       983.249569
 CELL_REF| Vector a [angstrom     7.012     0.000     0.000   |a| =     7.011596
 CELL_REF| Vector b [angstrom     0.000     7.012     0.000   |b| =     7.011596
 CELL_REF| Vector c [angstrom     0.000     0.000    20.000   |c| =    20.000000
 CELL_REF| Angle (b,c), alpha [degree]:                                90.000000
 CELL_REF| Angle (a,c), beta  [degree]:                                90.000000
 CELL_REF| Angle (a,b), gamma [degree]:                                90.000000
 CELL_REF| Numerically orthorhombic:                                         YES
 CELL_REF| Periodicity                                                       XYZ

 *** WARNING in cryssym.F:165 :: Symmetry library SPGLIB not available ***


 *******************************************************************************
                                    Kpoints
 *******************************************************************************
 BRILLOUIN| K-point scheme                                        Monkhorst-Pack
 BRILLOUIN| K-Point grid                                             4    4    1
 BRILLOUIN| Accuracy in Symmetry determination                      0.100000E-05
 BRILLOUIN| K-Point point group symmetrization                               OFF
 BRILLOUIN| Wavefunction type                                            COMPLEX
 BRILLOUIN| List of Kpoints [2 Pi/Bohr]                                        8
 BRILLOUIN| Number           Weight            X              Y              Z
 BRILLOUIN|     1           0.12500       -0.37500       -0.37500        0.00000
 BRILLOUIN|     2           0.12500       -0.37500       -0.12500        0.00000
 BRILLOUIN|     3           0.12500       -0.37500        0.12500        0.00000
 BRILLOUIN|     4           0.12500       -0.37500        0.37500        0.00000
 BRILLOUIN|     5           0.12500       -0.12500       -0.37500        0.00000
 BRILLOUIN|     6           0.12500       -0.12500       -0.12500        0.00000
 BRILLOUIN|     7           0.12500       -0.12500        0.12500        0.00000
 BRILLOUIN|     8           0.12500       -0.12500        0.37500        0.00000
 *******************************************************************************

 *******************************************************************************
 *******************************************************************************
 **                                                                           **
 **     #####                         ##              ##                      **
 **    ##   ##            ##          ##              ##                      **
 **   ##     ##                       ##            ######                    **
 **   ##     ##  ##   ##  ##   #####  ##  ##   ####   ##    #####    #####    **
 **   ##     ##  ##   ##  ##  ##      ## ##   ##      ##   ##   ##  ##   ##   **
 **   ##  ## ##  ##   ##  ##  ##      ####     ###    ##   ######   ######    **
 **    ##  ###   ##   ##  ##  ##      ## ##      ##   ##   ##       ##        **
 **     #######   #####   ##   #####  ##  ##  ####    ##    #####   ##        **
 **           ##                                                    ##        **
 **                                                                           **
 **                                                ... make the atoms dance   **
 **                                                                           **
 **            Copyright (C) by CP2K developers group (2000-2023)             **
 **                      J. Chem. Phys. 152, 194103 (2020)                    **
 **                                                                           **
 *******************************************************************************

 *** WARNING in qs_environment.F:1456 :: Number of electrons will be ***
 *** overwritten by NELEC_ALPHA and NELEC_BETA, multiplicity will be ***
 *** ignored.                                                        ***

 Number of electrons should be                                               576
 Sum of NELEC_ALPHA and NELEC_BETA is                                    576.000

 *** WARNING in qs_environment.F:1488 :: NELEC_ALPHA is not an integer, ***
 *** many features will not be supported.                               ***


 *** WARNING in qs_environment.F:1500 :: NELEC_BETA is not an integer, ***
 *** many features will not be supported.                              ***


 *** WARNING in qs_environment.F:1532 :: More ADDED_MOs requested for beta ***
 *** spin than available.                                                  ***


 *** WARNING in qs_environment.F:1548 :: More added MOs requested than     ***
 *** available. The full set of unoccupied MOs will be used. Use           ***
 *** 'ADDED_MOS -1' to always use all available MOs and to get rid of this ***
 *** warning.                                                              ***


 DFT| Spin unrestricted (spin-polarized) Kohn-Sham calculation               UKS
 DFT| Multiplicity                                                             1
 DFT| Number of spin states                                                    2
 DFT| Charge                                                                   0
 DFT| Self-interaction correction (SIC)                                       NO
 DFT| Cutoffs: density                                              1.000000E-10
 DFT|          gradient                                             1.000000E-10
 DFT|          tau                                                  1.000000E-10
 DFT|          cutoff_smoothing_range                               0.000000E+00
 DFT| XC density smoothing                                                  NONE
 DFT| XC derivatives                                                          PW

 FUNCTIONAL| PBE:
 FUNCTIONAL| J.P.Perdew, K.Burke, M.Ernzerhof, Phys. Rev. Letter, vol. 77, n 18,
 FUNCTIONAL|  pp. 3865-3868, (1996){spin polarized}                             

 vdW POTENTIAL|                                                   Pair Potential
 vdW POTENTIAL|          DFT-D3 (Version 3.1)
 vdW POTENTIAL|          Potential Form: S. Grimme et al, JCP 132: 154104 (2010)
 vdW POTENTIAL|          Zero Damping
 vdW POTENTIAL|          Cutoff Radius [Bohr]:                             20.00
 vdW POTENTIAL|          s6 Scaling Factor:                               1.0000
 vdW POTENTIAL|          sr6 Scaling Factor:                              1.2170
 vdW POTENTIAL|          s8 Scaling Factor:                               0.7220
 vdW POTENTIAL|          Cutoff for CN calculation:                   0.1000E-05

 QS| Method:                                                                 GPW
 QS| Density plane wave grid type                        NON-SPHERICAL FULLSPACE
 QS| Number of grid levels:                                                    5
 QS| Density cutoff [a.u.]:                                                300.0
 QS| Multi grid cutoff [a.u.]: 1) grid level                               300.0
 QS|                           2) grid level                               100.0
 QS|                           3) grid level                                33.3
 QS|                           4) grid level                                11.1
 QS|                           5) grid level                                 3.7
 QS| Grid level progression factor:                                          3.0
 QS| Relative density cutoff [a.u.]:                                        30.0
 QS| Interaction thresholds: eps_pgf_orb:                                1.0E-06
 QS|                         eps_filter_matrix:                          0.0E+00
 QS|                         eps_core_charge:                            1.0E-14
 QS|                         eps_rho_gspace:                             1.0E-12
 QS|                         eps_rho_rspace:                             1.0E-12
 QS|                         eps_gvg_rspace:                             1.0E-06
 QS|                         eps_ppl:                                    1.0E-02
 QS|                         eps_ppnl:                                   1.0E-08


 ATOMIC KIND INFORMATION

  1. Atomic kind: Ni_i                                  Number of atoms:      16

     Orbital Basis Set                                        DZVP-MOLOPT-SR-GTH

       Number of orbital shell sets:                                           1
       Number of orbital shells:                                               8
       Number of primitive Cartesian functions:                                6
       Number of Cartesian basis functions:                                   31
       Number of spherical basis functions:                                   26
       Norm type:                                                              2

       Normalised Cartesian orbitals:

                        Set   Shell   Orbital            Exponent    Coefficient

                          1       1    2s               10.077428      -0.684558
                                                         5.847736      -0.844524
                                                         2.494033       1.088856
                                                         0.988355       0.395503
                                                         0.344978       0.010224
                                                         0.099466      -0.003250

                          1       2    3s               10.077428       0.096747
                                                         5.847736       0.162504
                                                         2.494033      -0.297192
                                                         0.988355      -0.319752
                                                         0.344978       0.088318
                                                         0.099466       0.118587

                          1       3    4s               10.077428       0.036437
                                                         5.847736      -0.381480
                                                         2.494033       0.003759
                                                         0.988355      -1.048256
                                                         0.344978       0.855825
                                                         0.099466      -0.176350

                          1       4    3px              10.077428      -3.133913
                                                         5.847736       3.027656
                                                         2.494033       2.353227
                                                         0.988355       0.554184
                                                         0.344978       0.019462
                                                         0.099466      -0.000291
                          1       4    3py              10.077428      -3.133913
                                                         5.847736       3.027656
                                                         2.494033       2.353227
                                                         0.988355       0.554184
                                                         0.344978       0.019462
                                                         0.099466      -0.000291
                          1       4    3pz              10.077428      -3.133913
                                                         5.847736       3.027656
                                                         2.494033       2.353227
                                                         0.988355       0.554184
                                                         0.344978       0.019462
                                                         0.099466      -0.000291

                          1       5    4px              10.077428      -0.112729
                                                         5.847736      -0.114008
                                                         2.494033      -0.347303
                                                         0.988355      -0.110323
                                                         0.344978       0.154096
                                                         0.099466       0.058386
                          1       5    4py              10.077428      -0.112729
                                                         5.847736      -0.114008
                                                         2.494033      -0.347303
                                                         0.988355      -0.110323
                                                         0.344978       0.154096
                                                         0.099466       0.058386
                          1       5    4pz              10.077428      -0.112729
                                                         5.847736      -0.114008
                                                         2.494033      -0.347303
                                                         0.988355      -0.110323
                                                         0.344978       0.154096
                                                         0.099466       0.058386

                          1       6    4dx2             10.077428       8.232726
                                                         5.847736       9.105758
                                                         2.494033       2.849835
                                                         0.988355       0.554319
                                                         0.344978       0.067245
                                                         0.099466       0.001940
                          1       6    4dxy             10.077428      14.259500
                                                         5.847736      15.771636
                                                         2.494033       4.936060
                                                         0.988355       0.960109
                                                         0.344978       0.116472
                                                         0.099466       0.003360
                          1       6    4dxz             10.077428      14.259500
                                                         5.847736      15.771636
                                                         2.494033       4.936060
                                                         0.988355       0.960109
                                                         0.344978       0.116472
                                                         0.099466       0.003360
                          1       6    4dy2             10.077428       8.232726
                                                         5.847736       9.105758
                                                         2.494033       2.849835
                                                         0.988355       0.554319
                                                         0.344978       0.067245
                                                         0.099466       0.001940
                          1       6    4dyz             10.077428      14.259500
                                                         5.847736      15.771636
                                                         2.494033       4.936060
                                                         0.988355       0.960109
                                                         0.344978       0.116472
                                                         0.099466       0.003360
                          1       6    4dz2             10.077428       8.232726
                                                         5.847736       9.105758
                                                         2.494033       2.849835
                                                         0.988355       0.554319
                                                         0.344978       0.067245
                                                         0.099466       0.001940

                          1       7    5dx2             10.077428      -2.715373
                                                         5.847736      -4.020640
                                                         2.494033      -1.397569
                                                         0.988355      -0.076143
                                                         0.344978       0.033435
                                                         0.099466       0.026032
                          1       7    5dxy             10.077428      -4.703164
                                                         5.847736      -6.963952
                                                         2.494033      -2.420661
                                                         0.988355      -0.131883
                                                         0.344978       0.057911
                                                         0.099466       0.045088
                          1       7    5dxz             10.077428      -4.703164
                                                         5.847736      -6.963952
                                                         2.494033      -2.420661
                                                         0.988355      -0.131883
                                                         0.344978       0.057911
                                                         0.099466       0.045088
                          1       7    5dy2             10.077428      -2.715373
                                                         5.847736      -4.020640
                                                         2.494033      -1.397569
                                                         0.988355      -0.076143
                                                         0.344978       0.033435
                                                         0.099466       0.026032
                          1       7    5dyz             10.077428      -4.703164
                                                         5.847736      -6.963952
                                                         2.494033      -2.420661
                                                         0.988355      -0.131883
                                                         0.344978       0.057911
                                                         0.099466       0.045088
                          1       7    5dz2             10.077428      -2.715373
                                                         5.847736      -4.020640
                                                         2.494033      -1.397569
                                                         0.988355      -0.076143
                                                         0.344978       0.033435
                                                         0.099466       0.026032

                          1       8    5fx3             10.077428      -0.467694
                                                         5.847736       0.618100
                                                         2.494033       0.066069
                                                         0.988355       0.262898
                                                         0.344978       0.004720
                                                         0.099466       0.007748
                          1       8    5fx2y            10.077428      -1.045795
                                                         5.847736       1.382114
                                                         2.494033       0.147734
                                                         0.988355       0.587859
                                                         0.344978       0.010555
                                                         0.099466       0.017325
                          1       8    5fx2z            10.077428      -1.045795
                                                         5.847736       1.382114
                                                         2.494033       0.147734
                                                         0.988355       0.587859
                                                         0.344978       0.010555
                                                         0.099466       0.017325
                          1       8    5fxy2            10.077428      -1.045795
                                                         5.847736       1.382114
                                                         2.494033       0.147734
                                                         0.988355       0.587859
                                                         0.344978       0.010555
                                                         0.099466       0.017325
                          1       8    5fxyz            10.077428      -1.811371
                                                         5.847736       2.393892
                                                         2.494033       0.255883
                                                         0.988355       1.018201
                                                         0.344978       0.018282
                                                         0.099466       0.030008
                          1       8    5fxz2            10.077428      -1.045795
                                                         5.847736       1.382114
                                                         2.494033       0.147734
                                                         0.988355       0.587859
                                                         0.344978       0.010555
                                                         0.099466       0.017325
                          1       8    5fy3             10.077428      -0.467694
                                                         5.847736       0.618100
                                                         2.494033       0.066069
                                                         0.988355       0.262898
                                                         0.344978       0.004720
                                                         0.099466       0.007748
                          1       8    5fy2z            10.077428      -1.045795
                                                         5.847736       1.382114
                                                         2.494033       0.147734
                                                         0.988355       0.587859
                                                         0.344978       0.010555
                                                         0.099466       0.017325
                          1       8    5fyz2            10.077428      -1.045795
                                                         5.847736       1.382114
                                                         2.494033       0.147734
                                                         0.988355       0.587859
                                                         0.344978       0.010555
                                                         0.099466       0.017325
                          1       8    5fz3             10.077428      -0.467694
                                                         5.847736       0.618100
                                                         2.494033       0.066069
                                                         0.988355       0.262898
                                                         0.344978       0.004720
                                                         0.099466       0.007748

       Atomic covalent radius [Angstrom]:                                  1.150

       Atomic van der Waals radius [Angstrom]:                             1.630

     GTH Potential information for                                   GTH-PBE-q18

       Description:                       Goedecker-Teter-Hutter pseudopotential
                                           Goedecker et al., PRB 54, 1703 (1996)
                                          Hartwigsen et al., PRB 58, 3641 (1998)
                                                      Krack, TCA 114, 145 (2005)

       Gaussian exponent of the core charge distribution:               4.081633
       Electronic configuration (s p d ...):                           4   6   8

       Parameters of the local part of the GTH pseudopotential:

                          rloc        C1          C2          C3          C4
                        0.350000    2.102166    0.648484

       Parameters of the non-local part of the GTH pseudopotential:

                   l      r(l)      h(i,j,l)

                   0    0.261295    0.622658    9.970227
                                    9.970227  -12.871507
                   1    0.224253  -11.142708   12.429566
                                   12.429566  -14.706861
                   2    0.215348  -12.628146

  2. Atomic kind: Ni_b                                  Number of atoms:      16

     Orbital Basis Set                                        DZVP-MOLOPT-SR-GTH

       Number of orbital shell sets:                                           1
       Number of orbital shells:                                               8
       Number of primitive Cartesian functions:                                6
       Number of Cartesian basis functions:                                   31
       Number of spherical basis functions:                                   26
       Norm type:                                                              2

       Normalised Cartesian orbitals:

                        Set   Shell   Orbital            Exponent    Coefficient

                          1       1    2s               10.077428      -0.684558
                                                         5.847736      -0.844524
                                                         2.494033       1.088856
                                                         0.988355       0.395503
                                                         0.344978       0.010224
                                                         0.099466      -0.003250

                          1       2    3s               10.077428       0.096747
                                                         5.847736       0.162504
                                                         2.494033      -0.297192
                                                         0.988355      -0.319752
                                                         0.344978       0.088318
                                                         0.099466       0.118587

                          1       3    4s               10.077428       0.036437
                                                         5.847736      -0.381480
                                                         2.494033       0.003759
                                                         0.988355      -1.048256
                                                         0.344978       0.855825
                                                         0.099466      -0.176350

                          1       4    3px              10.077428      -3.133913
                                                         5.847736       3.027656
                                                         2.494033       2.353227
                                                         0.988355       0.554184
                                                         0.344978       0.019462
                                                         0.099466      -0.000291
                          1       4    3py              10.077428      -3.133913
                                                         5.847736       3.027656
                                                         2.494033       2.353227
                                                         0.988355       0.554184
                                                         0.344978       0.019462
                                                         0.099466      -0.000291
                          1       4    3pz              10.077428      -3.133913
                                                         5.847736       3.027656
                                                         2.494033       2.353227
                                                         0.988355       0.554184
                                                         0.344978       0.019462
                                                         0.099466      -0.000291

                          1       5    4px              10.077428      -0.112729
                                                         5.847736      -0.114008
                                                         2.494033      -0.347303
                                                         0.988355      -0.110323
                                                         0.344978       0.154096
                                                         0.099466       0.058386
                          1       5    4py              10.077428      -0.112729
                                                         5.847736      -0.114008
                                                         2.494033      -0.347303
                                                         0.988355      -0.110323
                                                         0.344978       0.154096
                                                         0.099466       0.058386
                          1       5    4pz              10.077428      -0.112729
                                                         5.847736      -0.114008
                                                         2.494033      -0.347303
                                                         0.988355      -0.110323
                                                         0.344978       0.154096
                                                         0.099466       0.058386

                          1       6    4dx2             10.077428       8.232726
                                                         5.847736       9.105758
                                                         2.494033       2.849835
                                                         0.988355       0.554319
                                                         0.344978       0.067245
                                                         0.099466       0.001940
                          1       6    4dxy             10.077428      14.259500
                                                         5.847736      15.771636
                                                         2.494033       4.936060
                                                         0.988355       0.960109
                                                         0.344978       0.116472
                                                         0.099466       0.003360
                          1       6    4dxz             10.077428      14.259500
                                                         5.847736      15.771636
                                                         2.494033       4.936060
                                                         0.988355       0.960109
                                                         0.344978       0.116472
                                                         0.099466       0.003360
                          1       6    4dy2             10.077428       8.232726
                                                         5.847736       9.105758
                                                         2.494033       2.849835
                                                         0.988355       0.554319
                                                         0.344978       0.067245
                                                         0.099466       0.001940
                          1       6    4dyz             10.077428      14.259500
                                                         5.847736      15.771636
                                                         2.494033       4.936060
                                                         0.988355       0.960109
                                                         0.344978       0.116472
                                                         0.099466       0.003360
                          1       6    4dz2             10.077428       8.232726
                                                         5.847736       9.105758
                                                         2.494033       2.849835
                                                         0.988355       0.554319
                                                         0.344978       0.067245
                                                         0.099466       0.001940

                          1       7    5dx2             10.077428      -2.715373
                                                         5.847736      -4.020640
                                                         2.494033      -1.397569
                                                         0.988355      -0.076143
                                                         0.344978       0.033435
                                                         0.099466       0.026032
                          1       7    5dxy             10.077428      -4.703164
                                                         5.847736      -6.963952
                                                         2.494033      -2.420661
                                                         0.988355      -0.131883
                                                         0.344978       0.057911
                                                         0.099466       0.045088
                          1       7    5dxz             10.077428      -4.703164
                                                         5.847736      -6.963952
                                                         2.494033      -2.420661
                                                         0.988355      -0.131883
                                                         0.344978       0.057911
                                                         0.099466       0.045088
                          1       7    5dy2             10.077428      -2.715373
                                                         5.847736      -4.020640
                                                         2.494033      -1.397569
                                                         0.988355      -0.076143
                                                         0.344978       0.033435
                                                         0.099466       0.026032
                          1       7    5dyz             10.077428      -4.703164
                                                         5.847736      -6.963952
                                                         2.494033      -2.420661
                                                         0.988355      -0.131883
                                                         0.344978       0.057911
                                                         0.099466       0.045088
                          1       7    5dz2             10.077428      -2.715373
                                                         5.847736      -4.020640
                                                         2.494033      -1.397569
                                                         0.988355      -0.076143
                                                         0.344978       0.033435
                                                         0.099466       0.026032

                          1       8    5fx3             10.077428      -0.467694
                                                         5.847736       0.618100
                                                         2.494033       0.066069
                                                         0.988355       0.262898
                                                         0.344978       0.004720
                                                         0.099466       0.007748
                          1       8    5fx2y            10.077428      -1.045795
                                                         5.847736       1.382114
                                                         2.494033       0.147734
                                                         0.988355       0.587859
                                                         0.344978       0.010555
                                                         0.099466       0.017325
                          1       8    5fx2z            10.077428      -1.045795
                                                         5.847736       1.382114
                                                         2.494033       0.147734
                                                         0.988355       0.587859
                                                         0.344978       0.010555
                                                         0.099466       0.017325
                          1       8    5fxy2            10.077428      -1.045795
                                                         5.847736       1.382114
                                                         2.494033       0.147734
                                                         0.988355       0.587859
                                                         0.344978       0.010555
                                                         0.099466       0.017325
                          1       8    5fxyz            10.077428      -1.811371
                                                         5.847736       2.393892
                                                         2.494033       0.255883
                                                         0.988355       1.018201
                                                         0.344978       0.018282
                                                         0.099466       0.030008
                          1       8    5fxz2            10.077428      -1.045795
                                                         5.847736       1.382114
                                                         2.494033       0.147734
                                                         0.988355       0.587859
                                                         0.344978       0.010555
                                                         0.099466       0.017325
                          1       8    5fy3             10.077428      -0.467694
                                                         5.847736       0.618100
                                                         2.494033       0.066069
                                                         0.988355       0.262898
                                                         0.344978       0.004720
                                                         0.099466       0.007748
                          1       8    5fy2z            10.077428      -1.045795
                                                         5.847736       1.382114
                                                         2.494033       0.147734
                                                         0.988355       0.587859
                                                         0.344978       0.010555
                                                         0.099466       0.017325
                          1       8    5fyz2            10.077428      -1.045795
                                                         5.847736       1.382114
                                                         2.494033       0.147734
                                                         0.988355       0.587859
                                                         0.344978       0.010555
                                                         0.099466       0.017325
                          1       8    5fz3             10.077428      -0.467694
                                                         5.847736       0.618100
                                                         2.494033       0.066069
                                                         0.988355       0.262898
                                                         0.344978       0.004720
                                                         0.099466       0.007748

       Atomic covalent radius [Angstrom]:                                  1.150

       Atomic van der Waals radius [Angstrom]:                             1.630

     GTH Potential information for                                   GTH-PBE-q18

       Description:                       Goedecker-Teter-Hutter pseudopotential
                                           Goedecker et al., PRB 54, 1703 (1996)
                                          Hartwigsen et al., PRB 58, 3641 (1998)
                                                      Krack, TCA 114, 145 (2005)

       Gaussian exponent of the core charge distribution:               4.081633
       Electronic configuration (s p d ...):                           4   6   8

       Parameters of the local part of the GTH pseudopotential:

                          rloc        C1          C2          C3          C4
                        0.350000    2.102166    0.648484

       Parameters of the non-local part of the GTH pseudopotential:

                   l      r(l)      h(i,j,l)

                   0    0.261295    0.622658    9.970227
                                    9.970227  -12.871507
                   1    0.224253  -11.142708   12.429566
                                   12.429566  -14.706861
                   2    0.215348  -12.628146


 MOLECULE KIND INFORMATION


 All atoms are their own molecule, skipping detailed information


 TOTAL NUMBERS AND MAXIMUM NUMBERS

  Total number of            - Atomic kinds:                                   2
                             - Atoms:                                         32
                             - Shell sets:                                    32
                             - Shells:                                       256
                             - Primitive Cartesian functions:                192
                             - Cartesian basis functions:                    992
                             - Spherical basis functions:                    832

  Maximum angular momentum of- Orbital basis functions:                        3
                             - Local part of the GTH pseudopotential:          2
                             - Non-local part of the GTH pseudopotential:      3


 MODULE QUICKSTEP: ATOMIC COORDINATES IN ANGSTROM

   Atom Kind Element         X             Y             Z       Z(eff)     Mass
      1    1 Ni   28      0.876298      0.876298      7.370500  18.0000  58.6934
      2    1 Ni   28      0.876298      4.382298      7.370500  18.0000  58.6934
      3    1 Ni   28      2.629298      2.629298      7.370500  18.0000  58.6934
      4    1 Ni   28      2.629298      6.135298      7.370500  18.0000  58.6934
      5    1 Ni   28      4.382298      0.876298      7.370500  18.0000  58.6934
      6    1 Ni   28      4.382298      4.382298      7.370500  18.0000  58.6934
      7    1 Ni   28      6.135298      2.629298      7.370500  18.0000  58.6934
      8    1 Ni   28      6.135298      6.135298      7.370500  18.0000  58.6934
      9    2 Ni   28      0.876298      2.629298      9.123500  18.0000  58.6934
     10    2 Ni   28      0.876298      6.135298      9.123500  18.0000  58.6934
     11    2 Ni   28      2.629298      0.876298      9.123500  18.0000  58.6934
     12    2 Ni   28      2.629298      4.382298      9.123500  18.0000  58.6934
     13    2 Ni   28      4.382298      2.629298      9.123500  18.0000  58.6934
     14    2 Ni   28      4.382298      6.135298      9.123500  18.0000  58.6934
     15    2 Ni   28      6.135298      0.876298      9.123500  18.0000  58.6934
     16    2 Ni   28      6.135298      4.382298      9.123500  18.0000  58.6934
     17    2 Ni   28      0.876298      0.876298     10.876500  18.0000  58.6934
     18    2 Ni   28      0.876298      4.382298     10.876500  18.0000  58.6934
     19    2 Ni   28      2.629298      2.629298     10.876500  18.0000  58.6934
     20    2 Ni   28      2.629298      6.135298     10.876500  18.0000  58.6934
     21    2 Ni   28      4.382298      0.876298     10.876500  18.0000  58.6934
     22    2 Ni   28      4.382298      4.382298     10.876500  18.0000  58.6934
     23    2 Ni   28      6.135298      2.629298     10.876500  18.0000  58.6934
     24    2 Ni   28      6.135298      6.135298     10.876500  18.0000  58.6934
     25    1 Ni   28      0.876298      2.629298     12.629500  18.0000  58.6934
     26    1 Ni   28      0.876298      6.135298     12.629500  18.0000  58.6934
     27    1 Ni   28      2.629298      0.876298     12.629500  18.0000  58.6934
     28    1 Ni   28      2.629298      4.382298     12.629500  18.0000  58.6934
     29    1 Ni   28      4.382298      2.629298     12.629500  18.0000  58.6934
     30    1 Ni   28      4.382298      6.135298     12.629500  18.0000  58.6934
     31    1 Ni   28      6.135298      0.876298     12.629500  18.0000  58.6934
     32    1 Ni   28      6.135298      4.382298     12.629500  18.0000  58.6934



 SCF PARAMETERS         Density guess:                                    ATOMIC
                        --------------------------------------------------------
                        max_scf:                                             500
                        max_scf_history:                                       0
                        max_diis:                                              4
                        --------------------------------------------------------
                        eps_scf:                                        1.00E-04
                        eps_scf_history:                                0.00E+00
                        eps_diis:                                       1.00E-01
                        eps_eigval:                                     1.00E-05
                        --------------------------------------------------------
                        level_shift [a.u.]:                             0.000000
                        added MOs                                       532  555
                        --------------------------------------------------------
                        Mixing method:                            BROYDEN_MIXING
                                                charge density mixing in g-space
                        --------------------------------------------------------
                        Smear method:                                FERMI_DIRAC
                        Electronic temperature [K]:                       2000.0
                        Electronic temperature [a.u.]:                  6.33E-03
                        Accuracy threshold:                             1.00E-10
                        --------------------------------------------------------
                        No outer SCF

 PW_GRID| Information for grid number                                          1
 PW_GRID| Grid distributed over                                   128 processors
 PW_GRID| Real space group dimensions                                     8   16
 PW_GRID| the grid is blocked:                                               YES
 PW_GRID| Cutoff [a.u.]                                                    300.0
 PW_GRID| spherical cutoff:                                                   NO
 PW_GRID|   Bounds   1            -54      53                Points:         108
 PW_GRID|   Bounds   2            -54      53                Points:         108
 PW_GRID|   Bounds   3           -150     149                Points:         300
 PW_GRID| Volume element (a.u.^3)  0.1896E-02     Volume (a.u.^3)      6635.2971
 PW_GRID| Grid span                                                    FULLSPACE
 PW_GRID|   Distribution                         Average         Max         Min
 PW_GRID|   G-Vectors                            27337.5       28728       25272
 PW_GRID|   G-Rays                                 253.1         266         234
 PW_GRID|   Real Space Points                    27337.5       28728       25272

 PW_GRID| Information for grid number                                          2
 PW_GRID| Number of the reference grid                                         1
 PW_GRID| Grid distributed over                                   128 processors
 PW_GRID| Real space group dimensions                                     8   16
 PW_GRID| the grid is blocked:                                                NO
 PW_GRID| Cutoff [a.u.]                                                    100.0
 PW_GRID| spherical cutoff:                                                   NO
 PW_GRID|   Bounds   1            -30      29                Points:          60
 PW_GRID|   Bounds   2            -30      29                Points:          60
 PW_GRID|   Bounds   3            -90      89                Points:         180
 PW_GRID| Volume element (a.u.^3)  0.1024E-01     Volume (a.u.^3)      6635.2971
 PW_GRID| Grid span                                                    FULLSPACE
 PW_GRID|   Distribution                         Average         Max         Min
 PW_GRID|   G-Vectors                             5062.5       15960           0
 PW_GRID|   G-Rays                                  84.4         266           0
 PW_GRID|   Real Space Points                     5062.5        5760        3780

 PW_GRID| Information for grid number                                          3
 PW_GRID| Number of the reference grid                                         1
 PW_GRID| Grid distributed over                                   128 processors
 PW_GRID| Real space group dimensions                                     8   16
 PW_GRID| the grid is blocked:                                                NO
 PW_GRID| Cutoff [a.u.]                                                     33.3
 PW_GRID| spherical cutoff:                                                   NO
 PW_GRID|   Bounds   1            -18      17                Points:          36
 PW_GRID|   Bounds   2            -18      17                Points:          36
 PW_GRID|   Bounds   3            -50      49                Points:         100
 PW_GRID| Volume element (a.u.^3)  0.5120E-01     Volume (a.u.^3)      6635.2971
 PW_GRID| Grid span                                                    FULLSPACE
 PW_GRID|   Distribution                         Average         Max         Min
 PW_GRID|   G-Vectors                             1012.5        9576           0
 PW_GRID|   G-Rays                                  28.1         266           0
 PW_GRID|   Real Space Points                     1012.5        1500         800

 PW_GRID| Information for grid number                                          4
 PW_GRID| Number of the reference grid                                         1
 PW_GRID| Grid distributed over                                   128 processors
 PW_GRID| Real space group dimensions                                     8   16
 PW_GRID| the grid is blocked:                                                NO
 PW_GRID| Cutoff [a.u.]                                                     11.1
 PW_GRID| spherical cutoff:                                                   NO
 PW_GRID|   Bounds   1            -10       9                Points:          20
 PW_GRID|   Bounds   2            -10       9                Points:          20
 PW_GRID|   Bounds   3            -30      29                Points:          60
 PW_GRID| Volume element (a.u.^3)  0.2765         Volume (a.u.^3)      6635.2971
 PW_GRID| Grid span                                                    FULLSPACE
 PW_GRID|   Distribution                         Average         Max         Min
 PW_GRID|   G-Vectors                              187.5        3800           0
 PW_GRID|   G-Rays                                   9.4         190           0
 PW_GRID|   Real Space Points                      187.5         360         120

 PW_GRID| Information for grid number                                          5
 PW_GRID| Number of the reference grid                                         1
 PW_GRID| Grid distributed over                                   128 processors
 PW_GRID| Real space group dimensions                                     8   16
 PW_GRID| the grid is blocked:                                                NO
 PW_GRID| Cutoff [a.u.]                                                      3.7
 PW_GRID| spherical cutoff:                                                   NO
 PW_GRID|   Bounds   1             -6       5                Points:          12
 PW_GRID|   Bounds   2             -6       5                Points:          12
 PW_GRID|   Bounds   3            -18      17                Points:          36
 PW_GRID| Volume element (a.u.^3)   1.280         Volume (a.u.^3)      6635.2971
 PW_GRID| Grid span                                                    FULLSPACE
 PW_GRID|   Distribution                         Average         Max         Min
 PW_GRID|   G-Vectors                               40.5        1296           0
 PW_GRID|   G-Rays                                   3.4         108           0
 PW_GRID|   Real Space Points                       40.5          72           0

 POISSON| Solver                                                        PERIODIC
 POISSON| Periodicity                                                        XYZ

 RS_GRID| Information for grid number                                          1
 RS_GRID|   Bounds   1            -54      53                Points:         108
 RS_GRID|   Bounds   2            -54      53                Points:         108
 RS_GRID|   Bounds   3           -150     149                Points:         300
 RS_GRID| Real space distribution over                                  8 groups
 RS_GRID| Real space distribution along direction                              2
 RS_GRID| Border size                                                         28
 RS_GRID| Real space distribution over                                 16 groups
 RS_GRID| Real space distribution along direction                              3
 RS_GRID| Border size                                                         28
 RS_GRID|   Distribution                         Average         Max         Min
 RS_GRID|   Planes                                  69.5          70          69
 RS_GRID|   Distribution                         Average         Max         Min
 RS_GRID|   Planes                                  74.8          75          74

 RS_GRID| Information for grid number                                          2
 RS_GRID|   Bounds   1            -30      29                Points:          60
 RS_GRID|   Bounds   2            -30      29                Points:          60
 RS_GRID|   Bounds   3            -90      89                Points:         180
 RS_GRID| Real space fully replicated
 RS_GRID| Group size                                                           1

 RS_GRID| Information for grid number                                          3
 RS_GRID|   Bounds   1            -18      17                Points:          36
 RS_GRID|   Bounds   2            -18      17                Points:          36
 RS_GRID|   Bounds   3            -50      49                Points:         100
 RS_GRID| Real space fully replicated
 RS_GRID| Group size                                                           1

 RS_GRID| Information for grid number                                          4
 RS_GRID|   Bounds   1            -10       9                Points:          20
 RS_GRID|   Bounds   2            -10       9                Points:          20
 RS_GRID|   Bounds   3            -30      29                Points:          60
 RS_GRID| Real space fully replicated
 RS_GRID| Group size                                                           1

 RS_GRID| Information for grid number                                          5
 RS_GRID|   Bounds   1             -6       5                Points:          12
 RS_GRID|   Bounds   2             -6       5                Points:          12
 RS_GRID|   Bounds   3            -18      17                Points:          36
 RS_GRID| Real space fully replicated
 RS_GRID| Group size                                                           1

 Spin 1

 Number of electrons:                                                        299.680
 Number of occupied orbitals:                                                300
 Number of molecular orbitals:                                               832

 Spin 2

 Number of electrons:                                                        276.320
 Number of occupied orbitals:                                                277
 Number of molecular orbitals:                                               832

 Number of orbital functions:                                                832
 Number of independent orbital functions:                                    832

 Extrapolation method: initial_guess

 Atomic guess: The first density matrix is obtained in terms of atomic orbitals
               and electronic configurations assigned to each atomic kind

 Guess for atomic kind: Ni_i

 Electronic structure
    Total number of core electrons                                         10.00
    Total number of valence electrons                                      18.00
    Total number of electrons                                              28.00
    Multiplicity                                                         doublet
    Alpha Electrons
    S   [  1.00  1.00] 1.00  1.00
    P   [  3.00] 3.00
    D      4.40
    Beta Electrons
    S   [  1.00  1.00] 1.00  1.00
    P   [  3.00] 3.00
    D      3.60


 *******************************************************************************
                  Iteration          Convergence                     Energy [au]
 *******************************************************************************
                          1         1.51750                    -167.068932204718
                          2         15.5935                    -156.656530566819
                          3         2.37322                    -168.320625176021
                          4        0.215236                    -168.611142488999
                          5        0.864690E-01                -168.614185977773
                          6        0.204270E-01                -168.614864366588
                          7        0.117629E-02                -168.614962284536
                          8        0.143499E-02                -168.614962241165
                          9        0.165550E-03                -168.614962454733
                         10        0.801651E-03                -168.614962414936
                         11        0.526340E-03                -168.614962440154
                         12        0.114214E-03                -168.614962458210
                         13        0.974554E-04                -168.614962459061
                         14        0.103837E-03                -168.614962459937
                         15        0.922182E-04                -168.614962460311
                         16        0.489415E-04                -168.614962460739
                         17        0.376531E-04                -168.614962461148
                         18        0.319337E-04                -168.614962461185
                         19        0.537275E-04                -168.614962461068
                         20        0.409549E-04                -168.614962461145
                         21        0.226152E-04                -168.614962461237
                         22        0.174462E-04                -168.614962461257
                         23        0.165586E-04                -168.614962461260
                         24        0.160650E-04                -168.614962461262
                         25        0.113583E-04                -168.614962461280
                         26        0.503754E-05                -168.614962461287
                         27        0.239088E-05                -168.614962461289
                         28        0.206656E-05                -168.614962461289
                         29        0.678810E-06                -168.614962461289

 Energy components [Hartree]           Total Energy ::         -168.614962461289
                                        Band Energy ::          -26.570438398031
                                     Kinetic Energy ::           97.308645535822
                                   Potential Energy ::         -265.923607997111
                                      Virial (-V/T) ::            2.732785011371
                                        Core Energy ::         -299.569105195415
                                          XC Energy ::          -16.228812263913
                                     Coulomb Energy ::          147.182954998038
                       Total Pseudopotential Energy ::         -396.964091881334
                       Local Pseudopotential Energy ::         -362.650332264705
                    Nonlocal Pseudopotential Energy ::          -34.313759616629
                                        Confinement ::            0.863411500974

 Orbital energies  State     Spin  L     Occupation   Energy[a.u.]    Energy[eV]

                       1    alpha  0          1.000      -4.174802   -113.602130
                       2    alpha  0          1.000      -0.181779     -4.946449
                       1     beta  0          1.000      -4.138200   -112.606137
                       2     beta  0          1.000      -0.175997     -4.789129

                       1    alpha  1          3.000      -2.580817    -70.227599
                       1     beta  1          3.000      -2.545205    -69.258560

                       1    alpha  2          4.400      -0.328813     -8.947444
                       1     beta  2          3.600      -0.298561     -8.124256


 Total Electron Density at R=0:                                         0.030417

 Guess for atomic kind: Ni_b

 Electronic structure
    Total number of core electrons                                         10.00
    Total number of valence electrons                                      18.00
    Total number of electrons                                              28.00
    Multiplicity                                                         doublet
    Alpha Electrons
    S   [  1.00  1.00] 1.00  1.00
    P   [  3.00] 3.00
    D      4.33
    Beta Electrons
    S   [  1.00  1.00] 1.00  1.00
    P   [  3.00] 3.00
    D      3.67


 *******************************************************************************
                  Iteration          Convergence                     Energy [au]
 *******************************************************************************
                          1         1.51720                    -167.066877914120
                          2         15.3087                    -156.637619369615
                          3         2.31870                    -168.318893346293
                          4        0.203278                    -168.609456342153
                          5        0.793540E-01                -168.612397041238
                          6        0.161200E-01                -168.612964404383
                          7        0.358311E-02                -168.613028899000
                          8        0.367875E-02                -168.613028713985
                          9        0.390063E-03                -168.613030104162
                         10        0.195170E-02                -168.613029848693
                         11        0.742436E-03                -168.613030028330
                         12        0.163679E-03                -168.613030110456
                         13        0.196647E-03                -168.613030110608
                         14        0.160720E-03                -168.613030114222
                         15        0.186674E-03                -168.613030111504
                         16        0.178220E-04                -168.613030117592
                         17        0.521383E-04                -168.613030117424
                         18        0.113424E-04                -168.613030117610
                         19        0.605043E-05                -168.613030117619
                         20        0.829350E-05                -168.613030117620
                         21        0.317161E-05                -168.613030117625
                         22        0.314591E-05                -168.613030117625
                         23        0.159016E-05                -168.613030117626
                         24        0.207730E-05                -168.613030117626
                         25        0.163626E-05                -168.613030117626
                         26        0.765363E-06                -168.613030117626

 Energy components [Hartree]           Total Energy ::         -168.613030117626
                                        Band Energy ::          -26.569517285012
                                     Kinetic Energy ::           97.306028288787
                                   Potential Energy ::         -265.919058406413
                                      Virial (-V/T) ::            2.732811759794
                                        Core Energy ::         -299.567572819644
                                          XC Energy ::          -16.226600541988
                                     Coulomb Energy ::          147.181143244005
                       Total Pseudopotential Energy ::         -396.959941988063
                       Local Pseudopotential Energy ::         -362.647554017132
                    Nonlocal Pseudopotential Energy ::          -34.312387970932
                                        Confinement ::            0.863408796325

 Orbital energies  State     Spin  L     Occupation   Energy[a.u.]    Energy[eV]

                       1    alpha  0          1.000      -4.171807   -113.520637
                       2    alpha  0          1.000      -0.181291     -4.933183
                       1     beta  0          1.000      -4.141610   -112.698948
                       2     beta  0          1.000      -0.176522     -4.803409

                       1    alpha  1          3.000      -2.577903    -70.148302
                       1     beta  1          3.000      -2.548524    -69.348852

                       1    alpha  2          4.330      -0.326326     -8.879772
                       1     beta  2          3.670      -0.301367     -8.200622


 Total Electron Density at R=0:                                         0.030423

 Spin 1
 Re-scaling the density matrix to get the right number of electrons for spin 1
                  # Electrons              Trace(P)               Scaling factor
                        299.680             299.680                        1.000

 Spin 2
 Re-scaling the density matrix to get the right number of electrons for spin 2
                  # Electrons              Trace(P)               Scaling factor
                        276.320             276.320                        1.000


 SCF WAVEFUNCTION OPTIMIZATION

  Step     Update method      Time    Convergence         Total energy    Change
  ------------------------------------------------------------------------------
     1 NoMix/Diag. 0.80E-01    1.5     0.87245746     -5426.4951125646 -5.43E+03
     2 Broy./Diag. 0.80E-01    1.5     0.01474446     -5317.2491535288  1.09E+02
     3 Broy./Diag. 0.80E-01    1.5     0.05308548     -5353.4970411771 -3.62E+01
     4 Broy./Diag. 0.80E-01    1.5     0.00238480     -5417.2131007736 -6.37E+01
     5 Broy./Diag. 0.80E-01    1.5     0.01958729     -5414.2968450759  2.92E+00
     6 Broy./Diag. 0.80E-01    1.5     0.00424073     -5418.0029365274 -3.71E+00
     7 Broy./Diag. 0.80E-01    1.5     0.00550327     -5416.7362098143  1.27E+00
     8 Broy./Diag. 0.80E-01    1.5     0.01135334     -5417.6036717648 -8.67E-01
     9 Broy./Diag. 0.80E-01    1.5     0.00598764     -5417.8799905854 -2.76E-01
    10 Broy./Diag. 0.80E-01    1.6     0.00318583     -5417.2459277338  6.34E-01
    11 Broy./Diag. 0.80E-01    1.5     0.01168479     -5417.4464847677 -2.01E-01
    12 Broy./Diag. 0.80E-01    1.5     0.00014795     -5417.4236358291  2.28E-02
[...]
   124 Broy./Diag. 0.80E-01    1.5     0.00078242     -5417.7731084222  1.26E-02
   125 Broy./Diag. 0.80E-01    1.5     0.00053281     -5417.7726441394  4.64E-04
   126 Broy./Diag. 0.80E-01    1.5     0.00248597     -5417.7726410277  3.11E-06
   127 Broy./Diag. 0.80E-01    1.5     0.00078064     -5417.7893785269 -1.67E-02
   128 Broy./Diag. 0.80E-01    1.5     0.00058952     -5417.7830311282  6.35E-03
   129 Broy./Diag. 0.80E-01    1.5     0.00191036     -5417.7803990734  2.63E-03
   130 Broy./Diag. 0.80E-01    1.5     0.00081383     -5417.7767628216  3.64E-03
   131 Broy./Diag. 0.80E-01    1.5     0.00096786     -5417.7863074378 -9.54E-03
   132 Broy./Diag. 0.80E-01    1.5     0.00180991     -5417.7848220253  1.49E-03
   133 Broy./Diag. 0.80E-01    1.5     0.00270631     -5417.8008111785 -1.60E-02
   134 Broy./Diag. 0.80E-01    1.5     0.00097796     -5417.7602325728  4.06E-02
   135 Broy./Diag. 0.80E-01    1.5     0.00052942     -5417.7724382139 -1.22E-02
   136 Broy./Diag. 0.80E-01    1.5     0.00362341     -5417.7766056499 -4.17E-03
   137 Broy./Diag. 0.80E-01    1.5     0.00092309     -5417.7579518373  1.87E-02
   138 Broy./Diag. 0.80E-01    1.5     0.00085869     -5417.7650789480 -7.13E-03
   139 Broy./Diag. 0.80E-01    1.5     0.00032801     -5417.7501497525  1.49E-02
   140 Broy./Diag. 0.80E-01    1.5     0.00112802     -5417.7511131855 -9.63E-04
   141 Broy./Diag. 0.80E-01    1.5     0.00076758     -5417.7592797821 -8.17E-03
   142 Broy./Diag. 0.80E-01    1.5     0.00132546     -5417.7562959263  2.98E-03
   143 Broy./Diag. 0.80E-01    1.5     0.00056200     -5417.7391769206  1.71E-02
   144 Broy./Diag. 0.80E-01    1.5     0.00028956     -5417.7471268370 -7.95E-03
   145 Broy./Diag. 0.80E-01    1.5     0.00047765     -5417.7477197261 -5.93E-04
   146 Broy./Diag. 0.80E-01    1.5     0.00031601     -5417.7376481800  1.01E-02
   147 Broy./Diag. 0.80E-01    1.5     0.00276785     -5417.7530656105 -1.54E-02
   148 Broy./Diag. 0.80E-01    1.5     0.00125967     -5417.7293490720  2.37E-02
   149 Broy./Diag. 0.80E-01    1.5     0.00110744     -5417.7328220461 -3.47E-03
   150 Broy./Diag. 0.80E-01    1.5     0.00349106     -5417.7409412846 -8.12E-03
   151 Broy./Diag. 0.80E-01    1.5     0.00339599     -5417.7361820246  4.76E-03
   152 Broy./Diag. 0.80E-01    1.5     0.00249211     -5417.7290532538  7.13E-03
   153 Broy./Diag. 0.80E-01    1.5     0.00152445     -5417.8002725090 -7.12E-02
   154 Broy./Diag. 0.80E-01    1.5     0.00281776     -5417.7843935312  1.59E-02
   155 Broy./Diag. 0.80E-01    1.5     0.00130799     -5417.7657917141  1.86E-02
   156 Broy./Diag. 0.80E-01    1.5     0.00074142     -5417.7805263251 -1.47E-02
   157 Broy./Diag. 0.80E-01    1.5     0.00040528     -5417.7433165034  3.72E-02
   158 Broy./Diag. 0.80E-01    1.5     0.00038299     -5417.7417309559  1.59E-03
   159 Broy./Diag. 0.80E-01    1.5     0.00116518     -5417.7543574768 -1.26E-02
   160 Broy./Diag. 0.80E-01    1.5     0.00103252     -5417.7668807007 -1.25E-02
   161 Broy./Diag. 0.80E-01    1.5     0.00085397     -5417.7493194600  1.76E-02
   162 Broy./Diag. 0.80E-01    1.5     0.00045728     -5417.7618991786 -1.26E-02
   163 Broy./Diag. 0.80E-01    1.5     0.00225894     -5417.7731025908 -1.12E-02
   164 Broy./Diag. 0.80E-01    1.5     0.00174921     -5417.7524292359  2.07E-02
   165 Broy./Diag. 0.80E-01    1.5     0.00040850     -5417.7788231047 -2.64E-02
   166 Broy./Diag. 0.80E-01    1.5     0.00075642     -5417.7947346453 -1.59E-02
   167 Broy./Diag. 0.80E-01    1.5     0.00024887     -5417.7772008752  1.75E-02
   168 Broy./Diag. 0.80E-01    1.5     0.00250271     -5417.7814224299 -4.22E-03
   169 Broy./Diag. 0.80E-01    1.5     0.00052568     -5417.8343146959 -5.29E-02
   170 Broy./Diag. 0.80E-01    1.5     0.00119689     -5417.8415087015 -7.19E-03
   171 Broy./Diag. 0.80E-01    1.5     0.00106093     -5417.7771050764  6.44E-02
   172 Broy./Diag. 0.80E-01    1.5     0.00212911     -5417.7594019815  1.77E-02
   173 Broy./Diag. 0.80E-01    1.5     0.00092961     -5417.7755088183 -1.61E-02
   174 Broy./Diag. 0.80E-01    1.5     0.00149440     -5417.7698259517  5.68E-03
   175 Broy./Diag. 0.80E-01    1.5     0.00035073     -5417.7460830587  2.37E-02
   176 Broy./Diag. 0.80E-01    1.5     0.00186210     -5417.7617256193 -1.56E-02
   177 Broy./Diag. 0.80E-01    1.5     0.00065199     -5417.8026838630 -4.10E-02
   178 Broy./Diag. 0.80E-01    1.5     0.00109280     -5417.8145503919 -1.19E-02
   179 Broy./Diag. 0.80E-01    1.5     0.00210993     -5417.7868927829  2.77E-02
   180 Broy./Diag. 0.80E-01    1.5     0.00163122     -5417.7690740328  1.78E-02
   181 Broy./Diag. 0.80E-01    1.5     0.00049049     -5417.7571666355  1.19E-02
   182 Broy./Diag. 0.80E-01    1.5     0.00036447     -5417.7550679287  2.10E-03
   183 Broy./Diag. 0.80E-01    1.5     0.00259188     -5417.7528433988  2.22E-03
   184 Broy./Diag. 0.80E-01    1.5     0.00210683     -5417.7743201020 -2.15E-02
   185 Broy./Diag. 0.80E-01    1.5     0.00280017     -5417.7838506569 -9.53E-03
   186 Broy./Diag. 0.80E-01    1.5     0.00242105     -5417.7586558679  2.52E-02
   187 Broy./Diag. 0.80E-01    1.5     0.00334074     -5417.7465354922  1.21E-02
   188 Broy./Diag. 0.80E-01    1.5     0.00096641     -5417.7343226175  1.22E-02
   189 Broy./Diag. 0.80E-01    1.5     0.00317671     -5417.7423961701 -8.07E-03
   190 Broy./Diag. 0.80E-01    1.5     0.00563388     -5417.7230744105  1.93E-02
   191 Broy./Diag. 0.80E-01    1.5     0.00194388     -5417.7487611867 -2.57E-02
   192 Broy./Diag. 0.80E-01    1.5     0.00342869     -5417.7486229609  1.38E-04
   193 Broy./Diag. 0.80E-01    1.5     0.00129389     -5417.7850331967 -3.64E-02
   194 Broy./Diag. 0.80E-01    1.5     0.00219892     -5417.7709116636  1.41E-02
   195 Broy./Diag. 0.80E-01    1.5     0.00372104     -5417.7613249246  9.59E-03
   196 Broy./Diag. 0.80E-01    1.5     0.00031377     -5417.7452917327  1.60E-02
   197 Broy./Diag. 0.80E-01    1.5     0.00221688     -5417.7455370416 -2.45E-04
   198 Broy./Diag. 0.80E-01    1.5     0.00260327     -5417.7415199954  4.02E-03
   199 Broy./Diag. 0.80E-01    1.5     0.00248824     -5417.7288632613  1.27E-02
   200 Broy./Diag. 0.80E-01    1.5     0.00093724     -5417.7456090213 -1.67E-02
   201 Broy./Diag. 0.80E-01    1.5     0.00096334     -5417.7489061900 -3.30E-03
   202 Broy./Diag. 0.80E-01    1.5     0.00713576     -5417.7586423138 -9.74E-03
   203 Broy./Diag. 0.80E-01    1.5     0.01252360     -5417.8099245516 -5.13E-02
   204 Broy./Diag. 0.80E-01    1.5     0.01226686     -5417.7558447913  5.41E-02
   205 Broy./Diag. 0.80E-01    1.5     0.00473388     -5417.7977542832 -4.19E-02
   206 Broy./Diag. 0.80E-01    1.5     0.00409067     -5417.7635894566  3.42E-02
   207 Broy./Diag. 0.80E-01    1.5     0.01237009     -5417.7659069465 -2.32E-03
   208 Broy./Diag. 0.80E-01    1.5     0.00800652     -5417.7986827218 -3.28E-02
   209 Broy./Diag. 0.80E-01    1.5     0.00801830     -5417.7823821157  1.63E-02
   210 Broy./Diag. 0.80E-01    1.5     0.00318002     -5417.8115554256 -2.92E-02
   211 Broy./Diag. 0.80E-01    1.5     0.00481196     -5417.8039328533  7.62E-03
   212 Broy./Diag. 0.80E-01    1.5     0.00404324     -5417.7773944782  2.65E-02
   213 Broy./Diag. 0.80E-01    1.5     0.00503807     -5417.7787383195 -1.34E-03
   214 Broy./Diag. 0.80E-01    1.5     0.00273301     -5417.8076524597 -2.89E-02
   215 Broy./Diag. 0.80E-01    1.5     0.00440448     -5417.7860307293  2.16E-02
   216 Broy./Diag. 0.80E-01    1.5     0.01712164     -5417.7904281408 -4.40E-03
   217 Broy./Diag. 0.80E-01    1.5     0.00545531     -5417.8260218284 -3.56E-02
   218 Broy./Diag. 0.80E-01    1.5     0.00396926     -5417.8605723569 -3.46E-02
   219 Broy./Diag. 0.80E-01    1.5     0.00398152     -5417.9089948668 -4.84E-02
   220 Broy./Diag. 0.80E-01    1.5     0.00468379     -5417.8939766342  1.50E-02
   221 Broy./Diag. 0.80E-01    1.5     0.00524273     -5417.9061390518 -1.22E-02
   222 Broy./Diag. 0.80E-01    1.5     0.00330715     -5417.8880182716  1.81E-02
   223 Broy./Diag. 0.80E-01    1.5     0.00821802     -5417.8765966924  1.14E-02
   224 Broy./Diag. 0.80E-01    1.5     0.00718120     -5417.8956534205 -1.91E-02
   225 Broy./Diag. 0.80E-01    1.5     0.00497454     -5417.8959783497 -3.25E-04
   226 Broy./Diag. 0.80E-01    1.5     0.00317565     -5417.8941558366  1.82E-03
   227 Broy./Diag. 0.80E-01    1.5     0.00797166     -5417.9212367008 -2.71E-02
   228 Broy./Diag. 0.80E-01    1.5     0.02640779     -5417.9678677877 -4.66E-02
   229 Broy./Diag. 0.80E-01    1.5     0.00435092     -5417.7925426116  1.75E-01
   230 Broy./Diag. 0.80E-01    1.5     0.00995316     -5417.7846356167  7.91E-03
   231 Broy./Diag. 0.80E-01    1.5     0.00311836     -5417.7320258690  5.26E-02
   232 Broy./Diag. 0.80E-01    1.6     0.01291364     -5417.7561441802 -2.41E-02
   233 Broy./Diag. 0.80E-01    1.5     0.00619109     -5417.8424038875 -8.63E-02
   234 Broy./Diag. 0.80E-01    1.5     0.00239482     -5417.8745264055 -3.21E-02
   235 Broy./Diag. 0.80E-01    1.5     0.00382010     -5417.8979084344 -2.34E-02
   236 Broy./Diag. 0.80E-01    1.5     0.00620559     -5417.8284286268  6.95E-02
   237 Broy./Diag. 0.80E-01    1.5     0.00265623     -5417.8978539430 -6.94E-02
   238 Broy./Diag. 0.80E-01    1.5     0.01268801     -5417.8793043424  1.85E-02
   239 Broy./Diag. 0.80E-01    1.5     0.00402426     -5417.7878689674  9.14E-02
   240 Broy./Diag. 0.80E-01    1.5     0.01196751     -5417.8049446245 -1.71E-02
   241 Broy./Diag. 0.80E-01    1.5     0.00914256     -5417.8477301888 -4.28E-02
   242 Broy./Diag. 0.80E-01    1.5     0.00247918     -5417.8262177495  2.15E-02
   243 Broy./Diag. 0.80E-01    1.5     0.00287661     -5417.8553839277 -2.92E-02
   244 Broy./Diag. 0.80E-01    1.5     0.00353482     -5417.8743432501 -1.90E-02
   245 Broy./Diag. 0.80E-01    1.5     0.00862041     -5417.8525081055  2.18E-02
   246 Broy./Diag. 0.80E-01    1.5     0.00375986     -5417.8995309349 -4.70E-02
   247 Broy./Diag. 0.80E-01    1.5     0.00055022     -5417.9031243350 -3.59E-03
   248 Broy./Diag. 0.80E-01    1.5     0.00668413     -5417.9349677850 -3.18E-02
   249 Broy./Diag. 0.80E-01    1.5     0.00925824     -5417.9809139861 -4.59E-02
   250 Broy./Diag. 0.80E-01    1.5     0.00158453     -5417.9291471995  5.18E-02
   251 Broy./Diag. 0.80E-01    1.5     0.00247684     -5417.9773378873 -4.82E-02
   252 Broy./Diag. 0.80E-01    1.5     0.00258194     -5417.9841577394 -6.82E-03
   253 Broy./Diag. 0.80E-01    1.5     0.00072108     -5417.9824024304  1.76E-03
   254 Broy./Diag. 0.80E-01    1.5     0.00116829     -5417.9710555016  1.13E-02
   255 Broy./Diag. 0.80E-01    1.5     0.00142192     -5417.9807359490 -9.68E-03
   256 Broy./Diag. 0.80E-01    1.5     0.00480487     -5417.9990767747 -1.83E-02
   257 Broy./Diag. 0.80E-01    1.5     0.00139322     -5418.0397908577 -4.07E-02
   258 Broy./Diag. 0.80E-01    1.5     0.00942609     -5418.0449630013 -5.17E-03
   259 Broy./Diag. 0.80E-01    1.5     0.00196881     -5418.0265669714  1.84E-02
   260 Broy./Diag. 0.80E-01    1.5     0.00447358     -5418.0230575779  3.51E-03
   261 Broy./Diag. 0.80E-01    1.5     0.00218855     -5417.9268690442  9.62E-02
   262 Broy./Diag. 0.80E-01    1.5     0.00342353     -5417.7897782207  1.37E-01
   263 Broy./Diag. 0.80E-01    1.5     0.00580749     -5417.8915607551 -1.02E-01
   264 Broy./Diag. 0.80E-01    1.5     0.00614944     -5418.0758260812 -1.84E-01
   265 Broy./Diag. 0.80E-01    1.5     0.00169726     -5417.7453358674  3.30E-01
   266 Broy./Diag. 0.80E-01    1.5     0.00586454     -5417.7253475321  2.00E-02
   267 Broy./Diag. 0.80E-01    1.5     0.00515192     -5417.6823488283  4.30E-02
   268 Broy./Diag. 0.80E-01    1.5     0.00075607     -5417.8060930447 -1.24E-01
   269 Broy./Diag. 0.80E-01    1.5     0.00140521     -5417.8087163903 -2.62E-03
   270 Broy./Diag. 0.80E-01    1.5     0.00482331     -5417.7960625210  1.27E-02
   271 Broy./Diag. 0.80E-01    1.5     0.00129688     -5417.7446221834  5.14E-02
   272 Broy./Diag. 0.80E-01    1.5     0.00243793     -5417.7553924730 -1.08E-02
   273 Broy./Diag. 0.80E-01    1.5     0.00123750     -5417.7811319459 -2.57E-02
   274 Broy./Diag. 0.80E-01    1.5     0.00726493     -5417.7834235299 -2.29E-03
   275 Broy./Diag. 0.80E-01    1.5     0.00318551     -5417.8095377881 -2.61E-02
   276 Broy./Diag. 0.80E-01    1.5     0.00370918     -5417.8048957563  4.64E-03
   277 Broy./Diag. 0.80E-01    1.5     0.00941368     -5417.7866540342  1.82E-02
   278 Broy./Diag. 0.80E-01    1.5     0.01112674     -5417.8110294995 -2.44E-02
   279 Broy./Diag. 0.80E-01    1.5     0.00588913     -5417.7713223918  3.97E-02
   280 Broy./Diag. 0.80E-01    1.5     0.01055517     -5417.8236180307 -5.23E-02
   281 Broy./Diag. 0.80E-01    1.5     0.01115431     -5417.9073332167 -8.37E-02
   282 Broy./Diag. 0.80E-01    1.5     0.01041133     -5417.8294959388  7.78E-02
   283 Broy./Diag. 0.80E-01    1.5     0.01619533     -5417.7772238902  5.23E-02
   284 Broy./Diag. 0.80E-01    1.5     0.00334812     -5417.8939062583 -1.17E-01
   285 Broy./Diag. 0.80E-01    1.5     0.00344648     -5417.9149222524 -2.10E-02
   286 Broy./Diag. 0.80E-01    1.5     0.00253592     -5417.9220551986 -7.13E-03
   287 Broy./Diag. 0.80E-01    1.5     0.01867984     -5417.9315272690 -9.47E-03
   288 Broy./Diag. 0.80E-01    1.5     0.00622085     -5417.8217418499  1.10E-01
   289 Broy./Diag. 0.80E-01    1.5     0.00370456     -5417.7774890507  4.43E-02
   290 Broy./Diag. 0.80E-01    1.5     0.02241733     -5417.7965088838 -1.90E-02
   291 Broy./Diag. 0.80E-01    1.5     0.01052523     -5417.7285842075  6.79E-02
   292 Broy./Diag. 0.80E-01    1.5     0.00593350     -5417.6458855204  8.27E-02
   293 Broy./Diag. 0.80E-01    1.5     0.01860926     -5417.6346288581  1.13E-02
   294 Broy./Diag. 0.80E-01    1.5     0.00583735     -5417.5139130311  1.21E-01
   295 Broy./Diag. 0.80E-01    1.5     0.00316898     -5417.4868649788  2.70E-02
   296 Broy./Diag. 0.80E-01    1.5     0.01251572     -5417.4528276488  3.40E-02
   297 Broy./Diag. 0.80E-01    1.5     0.00317812     -5417.6182215096 -1.65E-01
   298 Broy./Diag. 0.80E-01    1.5     0.00598786     -5417.6481701656 -2.99E-02
   299 Broy./Diag. 0.80E-01    1.5     0.01190562     -5417.6717707346 -2.36E-02
   300 Broy./Diag. 0.80E-01    1.5     0.00636175     -5417.7116908646 -3.99E-02
   301 Broy./Diag. 0.80E-01    1.5     0.00294385     -5417.6744556907  3.72E-02
   302 Broy./Diag. 0.80E-01    1.5     0.00271138     -5417.6597778772  1.47E-02
   303 Broy./Diag. 0.80E-01    1.5     0.01136075     -5417.6869305054 -2.72E-02
   304 Broy./Diag. 0.80E-01    1.5     0.00774800     -5417.8194827607 -1.33E-01
   305 Broy./Diag. 0.80E-01    1.5     0.00980744     -5417.8580929641 -3.86E-02
   306 Broy./Diag. 0.80E-01    1.5     0.04129703     -5417.9377794235 -7.97E-02
   307 Broy./Diag. 0.80E-01    1.5     0.00252962     -5418.1283758863 -1.91E-01
   308 Broy./Diag. 0.80E-01    1.5     0.00630566     -5418.1175728003  1.08E-02
   309 Broy./Diag. 0.80E-01    1.5     0.00296244     -5418.1052374308  1.23E-02
   310 Broy./Diag. 0.80E-01    1.5     0.00863154     -5418.1095697380 -4.33E-03
   311 Broy./Diag. 0.80E-01    1.5     0.01146974     -5418.1676549982 -5.81E-02
   312 Broy./Diag. 0.80E-01    1.5     0.01121248     -5418.1303335879  3.73E-02
   313 Broy./Diag. 0.80E-01    1.5     0.00658687     -5418.2328193383 -1.02E-01
   314 Broy./Diag. 0.80E-01    1.5     0.00218847     -5418.2029645649  2.99E-02
   315 Broy./Diag. 0.80E-01    1.5     0.00156287     -5418.2037686117 -8.04E-04
   316 Broy./Diag. 0.80E-01    1.5     0.00358366     -5418.1978237729  5.94E-03
   317 Broy./Diag. 0.80E-01    1.5     0.00804092     -5418.1772890661  2.05E-02
   318 Broy./Diag. 0.80E-01    1.5     0.00174119     -5418.1868999443 -9.61E-03
   319 Broy./Diag. 0.80E-01    1.5     0.00287689     -5418.2062980459 -1.94E-02
   320 Broy./Diag. 0.80E-01    1.5     0.00868865     -5418.2171997408 -1.09E-02
   321 Broy./Diag. 0.80E-01    1.5     0.00851950     -5418.1944065858  2.28E-02
   322 Broy./Diag. 0.80E-01    1.5     0.00170131     -5418.0690153001  1.25E-01
   323 Broy./Diag. 0.80E-01    1.5     0.01294205     -5418.0578450902  1.12E-02
   324 Broy./Diag. 0.80E-01    1.5     0.00509310     -5417.8943705712  1.63E-01
   325 Broy./Diag. 0.80E-01    1.5     0.01308763     -5417.9603008258 -6.59E-02
   326 Broy./Diag. 0.80E-01    1.5     0.00544130     -5417.7228050603  2.37E-01
   327 Broy./Diag. 0.80E-01    1.5     0.00550979     -5417.7242906939 -1.49E-03
   328 Broy./Diag. 0.80E-01    1.5     0.00217953     -5417.7717136163 -4.74E-02
   329 Broy./Diag. 0.80E-01    1.5     0.00809228     -5417.7191789744  5.25E-02
   330 Broy./Diag. 0.80E-01    1.5     0.01632630     -5417.6708129469  4.84E-02
   331 Broy./Diag. 0.80E-01    1.5     0.02011438     -5417.6212977834  4.95E-02
   332 Broy./Diag. 0.80E-01    1.5     0.01077042     -5417.5431000006  7.82E-02
   333 Broy./Diag. 0.80E-01    1.5     0.00670002     -5417.4430906082  1.00E-01
   334 Broy./Diag. 0.80E-01    1.5     0.01927196     -5417.4077451577  3.53E-02
   335 Broy./Diag. 0.80E-01    1.5     0.00471162     -5417.2250519953  1.83E-01
   336 Broy./Diag. 0.80E-01    1.5     0.00150577     -5417.2240806774  9.71E-04
   337 Broy./Diag. 0.80E-01    1.5     0.00501969     -5417.2253545297 -1.27E-03
   338 Broy./Diag. 0.80E-01    1.5     0.00859709     -5417.2528811206 -2.75E-02
   339 Broy./Diag. 0.80E-01    1.5     0.00910062     -5417.3382215078 -8.53E-02
   340 Broy./Diag. 0.80E-01    1.5     0.00911014     -5417.4566171283 -1.18E-01
   341 Broy./Diag. 0.80E-01    1.5     0.00482806     -5417.6360062722 -1.79E-01
   342 Broy./Diag. 0.80E-01    1.5     0.00550209     -5417.7040281761 -6.80E-02
   343 Broy./Diag. 0.80E-01    1.5     0.00206405     -5417.7748330883 -7.08E-02
   344 Broy./Diag. 0.80E-01    1.5     0.00131012     -5417.7826914780 -7.86E-03
   345 Broy./Diag. 0.80E-01    1.5     0.00429172     -5417.7539483632  2.87E-02
   346 Broy./Diag. 0.80E-01    1.5     0.00196051     -5417.7443611463  9.59E-03
   347 Broy./Diag. 0.80E-01    1.5     0.00356273     -5417.7442466838  1.14E-04
   348 Broy./Diag. 0.80E-01    1.5     0.00161524     -5417.7233544387  2.09E-02
   349 Broy./Diag. 0.80E-01    1.5     0.00300921     -5417.7329948120 -9.64E-03
   350 Broy./Diag. 0.80E-01    1.5     0.00109325     -5417.7054336383  2.76E-02
   351 Broy./Diag. 0.80E-01    1.5     0.00114556     -5417.7028981337  2.54E-03
   352 Broy./Diag. 0.80E-01    1.5     0.00034211     -5417.7188680496 -1.60E-02
   353 Broy./Diag. 0.80E-01    1.5     0.00494514     -5417.7317687624 -1.29E-02
   354 Broy./Diag. 0.80E-01    1.5     0.00526805     -5417.7393460743 -7.58E-03
   355 Broy./Diag. 0.80E-01    1.5     0.00217232     -5417.7092237834  3.01E-02
   356 Broy./Diag. 0.80E-01    1.5     0.03312108     -5417.7148732269 -5.65E-03
   357 Broy./Diag. 0.80E-01    1.5     0.00778817     -5417.9313086422 -2.16E-01
   358 Broy./Diag. 0.80E-01    1.5     0.01231516     -5417.8452182657  8.61E-02
   359 Broy./Diag. 0.80E-01    1.5     0.00128625     -5417.7361985681  1.09E-01
   360 Broy./Diag. 0.80E-01    1.5     0.00177220     -5417.7361984247  1.43E-07
   361 Broy./Diag. 0.80E-01    1.5     0.00179012     -5417.7452470789 -9.05E-03
   362 Broy./Diag. 0.80E-01    1.5     0.00117604     -5417.7614188695 -1.62E-02
   363 Broy./Diag. 0.80E-01    1.5     0.00152375     -5417.7543840271  7.03E-03
   364 Broy./Diag. 0.80E-01    1.5     0.00184115     -5417.7509217136  3.46E-03
   365 Broy./Diag. 0.80E-01    1.5     0.00042700     -5417.7609151349 -9.99E-03
   366 Broy./Diag. 0.80E-01    1.5     0.00161571     -5417.7722991191 -1.14E-02
   367 Broy./Diag. 0.80E-01    1.5     0.00158915     -5417.7712056061  1.09E-03
   368 Broy./Diag. 0.80E-01    1.5     0.00147322     -5417.7735998719 -2.39E-03
   369 Broy./Diag. 0.80E-01    1.5     0.00550409     -5417.7753548653 -1.75E-03
