 DBCSR| CPU Multiplication driver                                           XSMM
 DBCSR| Multrec recursion limit                                              512
 DBCSR| Multiplication stack size                                           1000
 DBCSR| Maximum elements for images                                    UNLIMITED
 DBCSR| Multiplicative factor virtual images                                   1
 DBCSR| Use multiplication densification                                       T
 DBCSR| Multiplication size stacks                                             3
 DBCSR| Number of 3D layers                                               SINGLE
 DBCSR| Use MPI memory allocation                                              T
 DBCSR| Use RMA algorithm                                                      F
 DBCSR| Use Communication thread                                               T
 DBCSR| Communication thread load                                             87


  **** **** ******  **  PROGRAM STARTED AT               2022-10-13 12:44:12.039
 ***** ** ***  *** **   PROGRAM STARTED ON                         node-c12o-002
 **    ****   ******    PROGRAM STARTED BY                               mmm1169
 ***** **    ** ** **   PROGRAM PROCESS ID                                 24952
  **** **  *******  **  PROGRAM STARTED IN /lustre/scratch/mmm1169/work/other/cp
                                           2k_forum/ni_bulk/aspc-broyden-222-sme
                                           ar-slab/slab_multiplicity-33-alpha-5e
                                           -1-beta-5e-1-scf-1e-3-1e-4-5e-5-1e-5-
                                           1e-6-1e-7

 CP2K| version string:                                          CP2K version 7.1
 CP2K| source code revision number:                                  git:e635599
 CP2K| cp2kflags: libint fftw3 libxc elpa parallel mpi3 scalapack quip xsmm spgl
 CP2K|            ib
 CP2K| is freely available from                            https://www.cp2k.org/
 CP2K| Program compiled at                          Wed  8 Jan 12:34:35 GMT 2020
 CP2K| Program compiled on                                               login01
 CP2K| Program compiled for                                                local
 CP2K| Data directory path     /shared/ucl/apps/cp2k/7.1/gnu-4.9.2/cp2k-7.1/data
 CP2K| Input file name                                                 input.inp

 GLOBAL| Force Environment number                                              1
 GLOBAL| Basis set file name                                        BASIS_MOLOPT
 GLOBAL| Potential file name                                      GTH_POTENTIALS
 GLOBAL| MM Potential file name                                     MM_POTENTIAL
 GLOBAL| Coordinate file name                                         Ni-222.xyz
 GLOBAL| Method name                                                        CP2K
 GLOBAL| Project name                                                   Bulk_Opt
 GLOBAL| Preferred FFT library                                             FFTW3
 GLOBAL| Preferred diagonalization lib.                                     ELPA
 GLOBAL| Run type                                                         ENERGY
 GLOBAL| All-to-all communication in single precision                          F
 GLOBAL| FFTs using library dependent lengths                                  F
 GLOBAL| Global print level                                               MEDIUM
 GLOBAL| MPI I/O enabled                                                       T
 GLOBAL| Total number of message passing processes                            80
 GLOBAL| Number of threads for this process                                    1
 GLOBAL| This output is from process                                           0
 GLOBAL| CPU model name                 Intel(R) Xeon(R) Gold 6248 CPU @ 2.50GHz
 GLOBAL| CPUID                                                              1003

 MEMORY| system memory details [Kb]
 MEMORY|                        rank 0           min           max       average
 MEMORY| MemTotal            197730152     197730152     197730152     197730152
 MEMORY| MemFree             177113676     177113676     177268556     177191100
 MEMORY| Buffers                     0             0             0             0
 MEMORY| Cached               11590060      11566764      11590060      11578412
 MEMORY| Slab                   852948        754468        852948        803708
 MEMORY| SReclaimable           214352        197408        214352        205880
 MEMORY| MemLikelyFree       188918088     188918088     189032728     188975392


 *** Fundamental physical constants (SI units) ***

 *** Literature: B. J. Mohr and B. N. Taylor,
 ***             CODATA recommended values of the fundamental physical
 ***             constants: 2006, Web Version 5.1
 ***             http://physics.nist.gov/constants

 Speed of light in vacuum [m/s]                             2.99792458000000E+08
 Magnetic constant or permeability of vacuum [N/A**2]       1.25663706143592E-06
 Electric constant or permittivity of vacuum [F/m]          8.85418781762039E-12
 Planck constant (h) [J*s]                                  6.62606896000000E-34
 Planck constant (h-bar) [J*s]                              1.05457162825177E-34
 Elementary charge [C]                                      1.60217648700000E-19
 Electron mass [kg]                                         9.10938215000000E-31
 Electron g factor [ ]                                     -2.00231930436220E+00
 Proton mass [kg]                                           1.67262163700000E-27
 Fine-structure constant                                    7.29735253760000E-03
 Rydberg constant [1/m]                                     1.09737315685270E+07
 Avogadro constant [1/mol]                                  6.02214179000000E+23
 Boltzmann constant [J/K]                                   1.38065040000000E-23
 Atomic mass unit [kg]                                      1.66053878200000E-27
 Bohr radius [m]                                            5.29177208590000E-11

 *** Conversion factors ***

 [u] -> [a.u.]                                              1.82288848426455E+03
 [Angstrom] -> [Bohr] = [a.u.]                              1.88972613288564E+00
 [a.u.] = [Bohr] -> [Angstrom]                              5.29177208590000E-01
 [a.u.] -> [s]                                              2.41888432650478E-17
 [a.u.] -> [fs]                                             2.41888432650478E-02
 [a.u.] -> [J]                                              4.35974393937059E-18
 [a.u.] -> [N]                                              8.23872205491840E-08
 [a.u.] -> [K]                                              3.15774647902944E+05
 [a.u.] -> [kJ/mol]                                         2.62549961709828E+03
 [a.u.] -> [kcal/mol]                                       6.27509468713739E+02
 [a.u.] -> [Pa]                                             2.94210107994716E+13
 [a.u.] -> [bar]                                            2.94210107994716E+08
 [a.u.] -> [atm]                                            2.90362800883016E+08
 [a.u.] -> [eV]                                             2.72113838565563E+01
 [a.u.] -> [Hz]                                             6.57968392072181E+15
 [a.u.] -> [1/cm] (wave numbers)                            2.19474631370540E+05
 [a.u./Bohr**2] -> [1/cm]                                   5.14048714338585E+03
 

 CELL_TOP| Volume [angstrom^3]:                                          983.250
 CELL_TOP| Vector a [angstrom     7.012     0.000     0.000    |a| =       7.012
 CELL_TOP| Vector b [angstrom     0.000     7.012     0.000    |b| =       7.012
 CELL_TOP| Vector c [angstrom     0.000     0.000    20.000    |c| =      20.000
 CELL_TOP| Angle (b,c), alpha [degree]:                                   90.000
 CELL_TOP| Angle (a,c), beta  [degree]:                                   90.000
 CELL_TOP| Angle (a,b), gamma [degree]:                                   90.000
 CELL_TOP| Numerically orthorhombic:                                         YES

 GENERATE|  Preliminary Number of Bonds generated:                             0
 GENERATE|  Achieved consistency in connectivity generation.

 CELL| Volume [angstrom^3]:                                              983.250
 CELL| Vector a [angstrom]:       7.012     0.000     0.000    |a| =       7.012
 CELL| Vector b [angstrom]:       0.000     7.012     0.000    |b| =       7.012
 CELL| Vector c [angstrom]:       0.000     0.000    20.000    |c| =      20.000
 CELL| Angle (b,c), alpha [degree]:                                       90.000
 CELL| Angle (a,c), beta  [degree]:                                       90.000
 CELL| Angle (a,b), gamma [degree]:                                       90.000
 CELL| Numerically orthorhombic:                                             YES

 CELL_REF| Volume [angstrom^3]:                                          983.250
 CELL_REF| Vector a [angstrom     7.012     0.000     0.000    |a| =       7.012
 CELL_REF| Vector b [angstrom     0.000     7.012     0.000    |b| =       7.012
 CELL_REF| Vector c [angstrom     0.000     0.000    20.000    |c| =      20.000
 CELL_REF| Angle (b,c), alpha [degree]:                                   90.000
 CELL_REF| Angle (a,c), beta  [degree]:                                   90.000
 CELL_REF| Angle (a,b), gamma [degree]:                                   90.000
 CELL_REF| Numerically orthorhombic:                                         YES

 *******************************************************************************
 *******************************************************************************
 **                                                                           **
 **     #####                         ##              ##                      **
 **    ##   ##            ##          ##              ##                      **
 **   ##     ##                       ##            ######                    **
 **   ##     ##  ##   ##  ##   #####  ##  ##   ####   ##    #####    #####    **
 **   ##     ##  ##   ##  ##  ##      ## ##   ##      ##   ##   ##  ##   ##   **
 **   ##  ## ##  ##   ##  ##  ##      ####     ###    ##   ######   ######    **
 **    ##  ###   ##   ##  ##  ##      ## ##      ##   ##   ##       ##        **
 **     #######   #####   ##   #####  ##  ##  ####    ##    #####   ##        **
 **           ##                                                    ##        **
 **                                                                           **
 **                                                ... make the atoms dance   **
 **                                                                           **
 **            Copyright (C) by CP2K developers group (2000 - 2019)           **
 **                                                                           **
 *******************************************************************************

 *** WARNING in qs_environment.F:1296 :: More added MOs requested for beta ***
 *** spin than available.                                                  ***


 *** WARNING in qs_environment.F:1310 :: More added MOs requested than ***
 *** available. The full set of unoccupied MOs will be used.           ***


 DFT| Spin unrestricted (spin-polarized) Kohn-Sham calculation               UKS
 DFT| Multiplicity                                                            33
 DFT| Number of spin states                                                    2
 DFT| Charge                                                                   0
 DFT| Self-interaction correction (SIC)                                       NO
 DFT| Cutoffs: density                                              1.000000E-10
 DFT|          gradient                                             1.000000E-10
 DFT|          tau                                                  1.000000E-10
 DFT|          cutoff_smoothing_range                               0.000000E+00
 DFT| XC density smoothing                                                  NONE
 DFT| XC derivatives                                                          PW
 FUNCTIONAL| ROUTINE=NEW
 FUNCTIONAL| PBE:
 FUNCTIONAL| J.P.Perdew, K.Burke, M.Ernzerhof, Phys. Rev. Letter, vol. 77, n 18,
 FUNCTIONAL|  pp. 3865-3868, (1996){spin polarized}                             
 vdW POTENTIAL|                                                   Pair Potential
 vdW POTENTIAL|          DFT-D3 (Version 3.1)
 vdW POTENTIAL|          Potential Form: S. Grimme et al, JCP 132: 154104 (2010)
 vdW POTENTIAL|          Zero Damping
 vdW POTENTIAL|          Cutoff Radius [Bohr]:                             20.00
 vdW POTENTIAL|          s6 Scaling Factor:                               1.0000
 vdW POTENTIAL|          sr6 Scaling Factor:                              1.2170
 vdW POTENTIAL|          s8 Scaling Factor:                               0.7220
 vdW POTENTIAL|          Cutoff for CN calculation:                   0.1000E-05

 QS| Method:                                                                 GPW
 QS| Density plane wave grid type                        NON-SPHERICAL FULLSPACE
 QS| Number of grid levels:                                                    5
 QS| Density cutoff [a.u.]:                                                300.0
 QS| Multi grid cutoff [a.u.]: 1) grid level                               300.0
 QS|                           2) grid level                               100.0
 QS|                           3) grid level                                33.3
 QS|                           4) grid level                                11.1
 QS|                           5) grid level                                 3.7
 QS| Grid level progression factor:                                          3.0
 QS| Relative density cutoff [a.u.]:                                        30.0
 QS| Consistent realspace mapping and integration 
 QS| Interaction thresholds: eps_pgf_orb:                                1.0E-06
 QS|                         eps_filter_matrix:                          0.0E+00
 QS|                         eps_core_charge:                            1.0E-14
 QS|                         eps_rho_gspace:                             1.0E-12
 QS|                         eps_rho_rspace:                             1.0E-12
 QS|                         eps_gvg_rspace:                             1.0E-06
 QS|                         eps_ppl:                                    1.0E-02
 QS|                         eps_ppnl:                                   1.0E-08


 ATOMIC KIND INFORMATION

  1. Atomic kind: Ni                                    Number of atoms:      32

     Orbital Basis Set                                        DZVP-MOLOPT-SR-GTH

       Number of orbital shell sets:                                           1
       Number of orbital shells:                                               8
       Number of primitive Cartesian functions:                                6
       Number of Cartesian basis functions:                                   31
       Number of spherical basis functions:                                   26
       Norm type:                                                              2

       Normalised Cartesian orbitals:

                        Set   Shell   Orbital            Exponent    Coefficient

                          1       1    2s               10.077428      -0.684558
                                                         5.847736      -0.844524
                                                         2.494033       1.088856
                                                         0.988355       0.395503
                                                         0.344978       0.010224
                                                         0.099466      -0.003250

                          1       2    3s               10.077428       0.096747
                                                         5.847736       0.162504
                                                         2.494033      -0.297192
                                                         0.988355      -0.319752
                                                         0.344978       0.088318
                                                         0.099466       0.118587

                          1       3    4s               10.077428       0.036437
                                                         5.847736      -0.381480
                                                         2.494033       0.003759
                                                         0.988355      -1.048256
                                                         0.344978       0.855825
                                                         0.099466      -0.176350

                          1       4    3px              10.077428      -3.133913
                                                         5.847736       3.027656
                                                         2.494033       2.353227
                                                         0.988355       0.554184
                                                         0.344978       0.019462
                                                         0.099466      -0.000291
                          1       4    3py              10.077428      -3.133913
                                                         5.847736       3.027656
                                                         2.494033       2.353227
                                                         0.988355       0.554184
                                                         0.344978       0.019462
                                                         0.099466      -0.000291
                          1       4    3pz              10.077428      -3.133913
                                                         5.847736       3.027656
                                                         2.494033       2.353227
                                                         0.988355       0.554184
                                                         0.344978       0.019462
                                                         0.099466      -0.000291

                          1       5    4px              10.077428      -0.112729
                                                         5.847736      -0.114008
                                                         2.494033      -0.347303
                                                         0.988355      -0.110323
                                                         0.344978       0.154096
                                                         0.099466       0.058386
                          1       5    4py              10.077428      -0.112729
                                                         5.847736      -0.114008
                                                         2.494033      -0.347303
                                                         0.988355      -0.110323
                                                         0.344978       0.154096
                                                         0.099466       0.058386
                          1       5    4pz              10.077428      -0.112729
                                                         5.847736      -0.114008
                                                         2.494033      -0.347303
                                                         0.988355      -0.110323
                                                         0.344978       0.154096
                                                         0.099466       0.058386

                          1       6    4dx2             10.077428       8.232726
                                                         5.847736       9.105758
                                                         2.494033       2.849835
                                                         0.988355       0.554319
                                                         0.344978       0.067245
                                                         0.099466       0.001940
                          1       6    4dxy             10.077428      14.259500
                                                         5.847736      15.771636
                                                         2.494033       4.936060
                                                         0.988355       0.960109
                                                         0.344978       0.116472
                                                         0.099466       0.003360
                          1       6    4dxz             10.077428      14.259500
                                                         5.847736      15.771636
                                                         2.494033       4.936060
                                                         0.988355       0.960109
                                                         0.344978       0.116472
                                                         0.099466       0.003360
                          1       6    4dy2             10.077428       8.232726
                                                         5.847736       9.105758
                                                         2.494033       2.849835
                                                         0.988355       0.554319
                                                         0.344978       0.067245
                                                         0.099466       0.001940
                          1       6    4dyz             10.077428      14.259500
                                                         5.847736      15.771636
                                                         2.494033       4.936060
                                                         0.988355       0.960109
                                                         0.344978       0.116472
                                                         0.099466       0.003360
                          1       6    4dz2             10.077428       8.232726
                                                         5.847736       9.105758
                                                         2.494033       2.849835
                                                         0.988355       0.554319
                                                         0.344978       0.067245
                                                         0.099466       0.001940

                          1       7    5dx2             10.077428      -2.715373
                                                         5.847736      -4.020640
                                                         2.494033      -1.397569
                                                         0.988355      -0.076143
                                                         0.344978       0.033435
                                                         0.099466       0.026032
                          1       7    5dxy             10.077428      -4.703164
                                                         5.847736      -6.963952
                                                         2.494033      -2.420661
                                                         0.988355      -0.131883
                                                         0.344978       0.057911
                                                         0.099466       0.045088
                          1       7    5dxz             10.077428      -4.703164
                                                         5.847736      -6.963952
                                                         2.494033      -2.420661
                                                         0.988355      -0.131883
                                                         0.344978       0.057911
                                                         0.099466       0.045088
                          1       7    5dy2             10.077428      -2.715373
                                                         5.847736      -4.020640
                                                         2.494033      -1.397569
                                                         0.988355      -0.076143
                                                         0.344978       0.033435
                                                         0.099466       0.026032
                          1       7    5dyz             10.077428      -4.703164
                                                         5.847736      -6.963952
                                                         2.494033      -2.420661
                                                         0.988355      -0.131883
                                                         0.344978       0.057911
                                                         0.099466       0.045088
                          1       7    5dz2             10.077428      -2.715373
                                                         5.847736      -4.020640
                                                         2.494033      -1.397569
                                                         0.988355      -0.076143
                                                         0.344978       0.033435
                                                         0.099466       0.026032

                          1       8    5fx3             10.077428      -0.467694
                                                         5.847736       0.618100
                                                         2.494033       0.066069
                                                         0.988355       0.262898
                                                         0.344978       0.004720
                                                         0.099466       0.007748
                          1       8    5fx2y            10.077428      -1.045795
                                                         5.847736       1.382114
                                                         2.494033       0.147734
                                                         0.988355       0.587859
                                                         0.344978       0.010555
                                                         0.099466       0.017325
                          1       8    5fx2z            10.077428      -1.045795
                                                         5.847736       1.382114
                                                         2.494033       0.147734
                                                         0.988355       0.587859
                                                         0.344978       0.010555
                                                         0.099466       0.017325
                          1       8    5fxy2            10.077428      -1.045795
                                                         5.847736       1.382114
                                                         2.494033       0.147734
                                                         0.988355       0.587859
                                                         0.344978       0.010555
                                                         0.099466       0.017325
                          1       8    5fxyz            10.077428      -1.811371
                                                         5.847736       2.393892
                                                         2.494033       0.255883
                                                         0.988355       1.018201
                                                         0.344978       0.018282
                                                         0.099466       0.030008
                          1       8    5fxz2            10.077428      -1.045795
                                                         5.847736       1.382114
                                                         2.494033       0.147734
                                                         0.988355       0.587859
                                                         0.344978       0.010555
                                                         0.099466       0.017325
                          1       8    5fy3             10.077428      -0.467694
                                                         5.847736       0.618100
                                                         2.494033       0.066069
                                                         0.988355       0.262898
                                                         0.344978       0.004720
                                                         0.099466       0.007748
                          1       8    5fy2z            10.077428      -1.045795
                                                         5.847736       1.382114
                                                         2.494033       0.147734
                                                         0.988355       0.587859
                                                         0.344978       0.010555
                                                         0.099466       0.017325
                          1       8    5fyz2            10.077428      -1.045795
                                                         5.847736       1.382114
                                                         2.494033       0.147734
                                                         0.988355       0.587859
                                                         0.344978       0.010555
                                                         0.099466       0.017325
                          1       8    5fz3             10.077428      -0.467694
                                                         5.847736       0.618100
                                                         2.494033       0.066069
                                                         0.988355       0.262898
                                                         0.344978       0.004720
                                                         0.099466       0.007748

     GTH Potential information for                                       GTH-PBE

       Description:                       Goedecker-Teter-Hutter pseudopotential
                                           Goedecker et al., PRB 54, 1703 (1996)
                                          Hartwigsen et al., PRB 58, 3641 (1998)
                                                      Krack, TCA 114, 145 (2005)

       Gaussian exponent of the core charge distribution:               4.081633
       Electronic configuration (s p d ...):                           4   6   8

       Parameters of the local part of the GTH pseudopotential:

                          rloc        C1          C2          C3          C4
                        0.350000    2.102166    0.648484

       Parameters of the non-local part of the GTH pseudopotential:

                   l      r(l)      h(i,j,l)

                   0    0.261295    0.622658    9.970227
                                    9.970227  -12.871507
                   1    0.224253  -11.142708   12.429566
                                   12.429566  -14.706861
                   2    0.215348  -12.628146


 MOLECULE KIND INFORMATION


 All atoms are their own molecule, skipping detailed information


 TOTAL NUMBERS AND MAXIMUM NUMBERS

  Total number of            - Atomic kinds:                                   1
                             - Atoms:                                         32
                             - Shell sets:                                    32
                             - Shells:                                       256
                             - Primitive Cartesian functions:                192
                             - Cartesian basis functions:                    992
                             - Spherical basis functions:                    832

  Maximum angular momentum of- Orbital basis functions:                        3
                             - Local part of the GTH pseudopotential:          2
                             - Non-local part of the GTH pseudopotential:      3


 MODULE QUICKSTEP:  ATOMIC COORDINATES IN angstrom

  Atom  Kind  Element       X           Y           Z          Z(eff)       Mass

       1     1 Ni  28    0.000000    0.000000    0.000000     18.00      58.6934
       2     1 Ni  28    0.000000    1.752900    1.752900     18.00      58.6934
       3     1 Ni  28    1.752900    0.000000    1.752900     18.00      58.6934
       4     1 Ni  28    1.752900    1.752900    0.000000     18.00      58.6934
       5     1 Ni  28    3.505798    0.000000    0.000000     18.00      58.6934
       6     1 Ni  28    3.505798    1.752900    1.752900     18.00      58.6934
       7     1 Ni  28    5.258698    0.000000    1.752900     18.00      58.6934
       8     1 Ni  28    5.258698    1.752900    0.000000     18.00      58.6934
       9     1 Ni  28    0.000000    3.505798    0.000000     18.00      58.6934
      10     1 Ni  28    0.000000    5.258698    1.752900     18.00      58.6934
      11     1 Ni  28    1.752900    3.505798    1.752900     18.00      58.6934
      12     1 Ni  28    1.752900    5.258698    0.000000     18.00      58.6934
      13     1 Ni  28    3.505798    3.505798    0.000000     18.00      58.6934
      14     1 Ni  28    3.505798    5.258698    1.752900     18.00      58.6934
      15     1 Ni  28    5.258698    3.505798    1.752900     18.00      58.6934
      16     1 Ni  28    5.258698    5.258698    0.000000     18.00      58.6934
      17     1 Ni  28    0.000000    0.000000    3.505798     18.00      58.6934
      18     1 Ni  28    0.000000    1.752900    5.258698     18.00      58.6934
      19     1 Ni  28    1.752900    0.000000    5.258698     18.00      58.6934
      20     1 Ni  28    1.752900    1.752900    3.505798     18.00      58.6934
      21     1 Ni  28    3.505798    0.000000    3.505798     18.00      58.6934
      22     1 Ni  28    3.505798    1.752900    5.258698     18.00      58.6934
      23     1 Ni  28    5.258698    0.000000    5.258698     18.00      58.6934
      24     1 Ni  28    5.258698    1.752900    3.505798     18.00      58.6934
      25     1 Ni  28    0.000000    3.505798    3.505798     18.00      58.6934
      26     1 Ni  28    0.000000    5.258698    5.258698     18.00      58.6934
      27     1 Ni  28    1.752900    3.505798    5.258698     18.00      58.6934
      28     1 Ni  28    1.752900    5.258698    3.505798     18.00      58.6934
      29     1 Ni  28    3.505798    3.505798    3.505798     18.00      58.6934
      30     1 Ni  28    3.505798    5.258698    5.258698     18.00      58.6934
      31     1 Ni  28    5.258698    3.505798    5.258698     18.00      58.6934
      32     1 Ni  28    5.258698    5.258698    3.505798     18.00      58.6934




 SCF PARAMETERS         Density guess:                                   RESTART
                        --------------------------------------------------------
                        max_scf:                                             500
                        max_scf_history:                                       0
                        max_diis:                                             10
                        --------------------------------------------------------
                        eps_scf:                                        1.00E-07
                        eps_scf_history:                                0.00E+00
                        eps_diis:                                       1.00E-01
                        eps_eigval:                                     1.00E-05
                        --------------------------------------------------------
                        level_shift [a.u.]:                                 0.00
                        added MOs                                       528  560
                        --------------------------------------------------------
                        Mixing method:                            BROYDEN_MIXING
                                                charge density mixing in g-space
                        --------------------------------------------------------
                        Smear method:                                FERMI_DIRAC
                        Electronic temperature [K]:                        500.0
                        Electronic temperature [a.u.]:                  1.58E-03
                        Accuracy threshold:                             1.00E-10
                        --------------------------------------------------------
                        No outer SCF

 PW_GRID| Information for grid number                                          1
 PW_GRID| Grid distributed over                                    80 processors
 PW_GRID| Real space group dimensions                                    80    1
 PW_GRID| the grid is blocked:                                                NO
 PW_GRID| Cutoff [a.u.]                                                    300.0
 PW_GRID| spherical cutoff:                                                   NO
 PW_GRID|   Bounds   1            -54      53                Points:         108
 PW_GRID|   Bounds   2            -54      53                Points:         108
 PW_GRID|   Bounds   3           -150     149                Points:         300
 PW_GRID| Volume element (a.u.^3)  0.1896E-02     Volume (a.u.^3)      6635.2971
 PW_GRID| Grid span                                                    FULLSPACE
 PW_GRID|   Distribution                         Average         Max         Min
 PW_GRID|   G-Vectors                            43740.0       43740       43740
 PW_GRID|   G-Rays                                 405.0         405         405
 PW_GRID|   Real Space Points                    43740.0       64800       32400

 PW_GRID| Information for grid number                                          2
 PW_GRID| Number of the reference grid                                         1
 PW_GRID| Grid distributed over                                    80 processors
 PW_GRID| Real space group dimensions                                     8   10
 PW_GRID| the grid is blocked:                                                NO
 PW_GRID| Cutoff [a.u.]                                                    100.0
 PW_GRID| spherical cutoff:                                                   NO
 PW_GRID|   Bounds   1            -30      29                Points:          60
 PW_GRID|   Bounds   2            -30      29                Points:          60
 PW_GRID|   Bounds   3            -90      89                Points:         180
 PW_GRID| Volume element (a.u.^3)  0.1024E-01     Volume (a.u.^3)      6635.2971
 PW_GRID| Grid span                                                    FULLSPACE
 PW_GRID|   Distribution                         Average         Max         Min
 PW_GRID|   G-Vectors                             8100.0        8340        7740
 PW_GRID|   G-Rays                                 135.0         139         129
 PW_GRID|   Real Space Points                     8100.0        8640        7560

 PW_GRID| Information for grid number                                          3
 PW_GRID| Number of the reference grid                                         1
 PW_GRID| Grid distributed over                                    80 processors
 PW_GRID| Real space group dimensions                                     8   10
 PW_GRID| the grid is blocked:                                                NO
 PW_GRID| Cutoff [a.u.]                                                     33.3
 PW_GRID| spherical cutoff:                                                   NO
 PW_GRID|   Bounds   1            -18      17                Points:          36
 PW_GRID|   Bounds   2            -18      17                Points:          36
 PW_GRID|   Bounds   3            -50      49                Points:         100
 PW_GRID| Volume element (a.u.^3)  0.5120E-01     Volume (a.u.^3)      6635.2971
 PW_GRID| Grid span                                                    FULLSPACE
 PW_GRID|   Distribution                         Average         Max         Min
 PW_GRID|   G-Vectors                             1620.0        1836        1296
 PW_GRID|   G-Rays                                  45.0          51          36
 PW_GRID|   Real Space Points                     1620.0        2000        1200

 PW_GRID| Information for grid number                                          4
 PW_GRID| Number of the reference grid                                         1
 PW_GRID| Grid distributed over                                    80 processors
 PW_GRID| Real space group dimensions                                     8   10
 PW_GRID| the grid is blocked:                                                NO
 PW_GRID| Cutoff [a.u.]                                                     11.1
 PW_GRID| spherical cutoff:                                                   NO
 PW_GRID|   Bounds   1            -10       9                Points:          20
 PW_GRID|   Bounds   2            -10       9                Points:          20
 PW_GRID|   Bounds   3            -30      29                Points:          60
 PW_GRID| Volume element (a.u.^3)  0.2765         Volume (a.u.^3)      6635.2971
 PW_GRID| Grid span                                                    FULLSPACE
 PW_GRID|   Distribution                         Average         Max         Min
 PW_GRID|   G-Vectors                              300.0         380         140
 PW_GRID|   G-Rays                                  15.0          19           7
 PW_GRID|   Real Space Points                      300.0         360         240

 PW_GRID| Information for grid number                                          5
 PW_GRID| Number of the reference grid                                         1
 PW_GRID| Grid distributed over                                    80 processors
 PW_GRID| Real space group dimensions                                     8   10
 PW_GRID| the grid is blocked:                                                NO
 PW_GRID| Cutoff [a.u.]                                                      3.7
 PW_GRID| spherical cutoff:                                                   NO
 PW_GRID|   Bounds   1             -6       5                Points:          12
 PW_GRID|   Bounds   2             -6       5                Points:          12
 PW_GRID|   Bounds   3            -18      17                Points:          36
 PW_GRID| Volume element (a.u.^3)   1.280         Volume (a.u.^3)      6635.2971
 PW_GRID| Grid span                                                    FULLSPACE
 PW_GRID|   Distribution                         Average         Max         Min
 PW_GRID|   G-Vectors                               64.8         108          36
 PW_GRID|   G-Rays                                   5.4           9           3
 PW_GRID|   Real Space Points                       64.8         144          36

 POISSON| Solver                                                        PERIODIC
 POISSON| Periodicity                                                        XYZ

 RS_GRID| Information for grid number                                          1
 RS_GRID|   Bounds   1            -54      53                Points:         108
 RS_GRID|   Bounds   2            -54      53                Points:         108
 RS_GRID|   Bounds   3           -150     149                Points:         300
 RS_GRID| Real space distribution over                                  5 groups
 RS_GRID| Real space distribution along direction                              2
 RS_GRID| Border size                                                         28
 RS_GRID| Real space distribution over                                 16 groups
 RS_GRID| Real space distribution along direction                              3
 RS_GRID| Border size                                                         28
 RS_GRID|   Distribution                         Average         Max         Min
 RS_GRID|   Planes                                  77.6          78          77
 RS_GRID|   Distribution                         Average         Max         Min
 RS_GRID|   Planes                                  74.8          75          74

 RS_GRID| Information for grid number                                          2
 RS_GRID|   Bounds   1            -30      29                Points:          60
 RS_GRID|   Bounds   2            -30      29                Points:          60
 RS_GRID|   Bounds   3            -90      89                Points:         180
 RS_GRID| Real space distribution over                                  5 groups
 RS_GRID| Real space distribution along direction                              2
 RS_GRID| Border size                                                         28
 RS_GRID| Real space distribution over                                 16 groups
 RS_GRID| Real space distribution along direction                              3
 RS_GRID| Border size                                                         28
 RS_GRID|   Distribution                         Average         Max         Min
 RS_GRID|   Planes                                  68.0          68          68
 RS_GRID|   Distribution                         Average         Max         Min
 RS_GRID|   Planes                                  67.2          68          67

 RS_GRID| Information for grid number                                          3
 RS_GRID|   Bounds   1            -18      17                Points:          36
 RS_GRID|   Bounds   2            -18      17                Points:          36
 RS_GRID|   Bounds   3            -50      49                Points:         100
 RS_GRID| Real space fully replicated
 RS_GRID| Group size                                                           1

 RS_GRID| Information for grid number                                          4
 RS_GRID|   Bounds   1            -10       9                Points:          20
 RS_GRID|   Bounds   2            -10       9                Points:          20
 RS_GRID|   Bounds   3            -30      29                Points:          60
 RS_GRID| Real space fully replicated
 RS_GRID| Group size                                                           1

 RS_GRID| Information for grid number                                          5
 RS_GRID|   Bounds   1             -6       5                Points:          12
 RS_GRID|   Bounds   2             -6       5                Points:          12
 RS_GRID|   Bounds   3            -18      17                Points:          36
 RS_GRID| Real space fully replicated
 RS_GRID| Group size                                                           1

 Spin 1

 Number of electrons:                                                        304
 Number of occupied orbitals:                                                304
 Number of molecular orbitals:                                               832

 Spin 2

 Number of electrons:                                                        272
 Number of occupied orbitals:                                                272
 Number of molecular orbitals:                                               832

 Number of orbital functions:                                                832
 Number of independent orbital functions:                                    832

 Extrapolation method: initial_guess


 SCF WAVEFUNCTION OPTIMIZATION

  Step     Update method      Time    Convergence         Total energy    Change
  ------------------------------------------------------------------------------
     1 NoMix/Diag. 0.50E+00    0.5     0.00003013     -5417.6143204982 -5.42E+03
     2 Broy./Diag. 0.50E+00    0.7     0.00048756     -5417.6243519814 -1.00E-02
     3 Broy./Diag. 0.50E+00    0.7     0.00045682     -5417.6245437035 -1.92E-04
     4 Broy./Diag. 0.50E+00    0.7     0.00038349     -5417.6245019128  4.18E-05
     5 Broy./Diag. 0.50E+00    0.7     0.00037691     -5417.6242564050  2.46E-04
     6 Broy./Diag. 0.50E+00    0.7     0.00022047     -5417.6241938248  6.26E-05
     7 Broy./Diag. 0.50E+00    0.7     0.00019992     -5417.6245102961 -3.16E-04
     8 Broy./Diag. 0.50E+00    0.7     0.00012877     -5417.6246891621 -1.79E-04
     9 Broy./Diag. 0.50E+00    0.7     0.00010893     -5417.6244802683  2.09E-04
    10 Broy./Diag. 0.50E+00    0.7     0.00008399     -5417.6240004909  4.80E-04
    11 Broy./Diag. 0.50E+00    0.7     0.00008774     -5417.6241122476 -1.12E-04
    12 Broy./Diag. 0.50E+00    0.7     0.00007505     -5417.6246725693 -5.60E-04
    13 Broy./Diag. 0.50E+00    0.7     0.00006774     -5417.6248510311 -1.78E-04
    14 Broy./Diag. 0.50E+00    0.7     0.00006347     -5417.6240648354  7.86E-04
    15 Broy./Diag. 0.50E+00    0.7     0.00004825     -5417.6236367435  4.28E-04
    16 Broy./Diag. 0.50E+00    0.7     0.00002966     -5417.6240280213 -3.91E-04
    17 Broy./Diag. 0.50E+00    0.7     0.00002261     -5417.6252366614 -1.21E-03
    18 Broy./Diag. 0.50E+00    0.7     0.00001639     -5417.6250170647  2.20E-04
    19 Broy./Diag. 0.50E+00    0.7     0.00002072     -5417.6242173361  8.00E-04
    20 Broy./Diag. 0.50E+00    0.7     0.00001774     -5417.6239216561  2.96E-04
    21 Broy./Diag. 0.50E+00    0.7     0.00001349     -5417.6241919645 -2.70E-04
    22 Broy./Diag. 0.50E+00    0.7     0.00001309     -5417.6245694977 -3.78E-04
    23 Broy./Diag. 0.50E+00    0.7     0.00000880     -5417.6245792600 -9.76E-06
    24 Broy./Diag. 0.50E+00    0.7     0.00000898     -5417.6243139608  2.65E-04
    25 Broy./Diag. 0.50E+00    0.7     0.00000759     -5417.6242878000  2.62E-05
    26 Broy./Diag. 0.50E+00    0.8     0.00000476     -5417.6243439579 -5.62E-05
    27 Broy./Diag. 0.50E+00    0.7     0.00000434     -5417.6244771463 -1.33E-04
    28 Broy./Diag. 0.50E+00    0.7     0.00000359     -5417.6244290140  4.81E-05
    29 Broy./Diag. 0.50E+00    0.7     0.00000264     -5417.6243367762  9.22E-05
    30 Broy./Diag. 0.50E+00    0.7     0.00000200     -5417.6243411715 -4.40E-06
    31 Broy./Diag. 0.50E+00    0.7     0.00000184     -5417.6244332892 -9.21E-05
    32 Broy./Diag. 0.50E+00    0.7     0.00000176     -5417.6244350001 -1.71E-06
    33 Broy./Diag. 0.50E+00    0.7     0.00000180     -5417.6244010930  3.39E-05
    34 Broy./Diag. 0.50E+00    0.7     0.00000125     -5417.6243705103  3.06E-05
    35 Broy./Diag. 0.50E+00    0.7     0.00000082     -5417.6243653225  5.19E-06
    36 Broy./Diag. 0.50E+00    0.7     0.00000084     -5417.6244002826 -3.50E-05
    37 Broy./Diag. 0.50E+00    0.7     0.00000077     -5417.6244063312 -6.05E-06
    38 Broy./Diag. 0.50E+00    0.7     0.00000079     -5417.6243902043  1.61E-05
    39 Broy./Diag. 0.50E+00    0.7     0.00000063     -5417.6243827191  7.49E-06
    40 Broy./Diag. 0.50E+00    0.7     0.00000057     -5417.6243823807  3.38E-07
    41 Broy./Diag. 0.50E+00    0.7     0.00000057     -5417.6243941427 -1.18E-05
    42 Broy./Diag. 0.50E+00    0.7     0.00000046     -5417.6243958573 -1.71E-06
    43 Broy./Diag. 0.50E+00    0.7     0.00000040     -5417.6243943210  1.54E-06
    44 Broy./Diag. 0.50E+00    0.7     0.00000043     -5417.6243881950  6.13E-06
    45 Broy./Diag. 0.50E+00    0.7     0.00000034     -5417.6243838150  4.38E-06
    46 Broy./Diag. 0.50E+00    0.7     0.00000026     -5417.6243875317 -3.72E-06
    47 Broy./Diag. 0.50E+00    0.7     0.00000026     -5417.6243985714 -1.10E-05
    48 Broy./Diag. 0.50E+00    0.7     0.00000029     -5417.6243970017  1.57E-06
    49 Broy./Diag. 0.50E+00    0.8     0.00000020     -5417.6243859530  1.10E-05
    50 Broy./Diag. 0.50E+00    0.7     0.00000037     -5417.6243864632 -5.10E-07
    51 Broy./Diag. 0.50E+00    0.7     0.00000022     -5417.6243881848 -1.72E-06
    52 Broy./Diag. 0.50E+00    0.7     0.00000043     -5417.6243892383 -1.05E-06
    53 Broy./Diag. 0.50E+00    0.7     0.00000051     -5417.6243870293  2.21E-06
    54 Broy./Diag. 0.50E+00    0.7     0.00000041     -5417.6243918720 -4.84E-06
    55 Broy./Diag. 0.50E+00    0.7     0.00000033     -5417.6243933070 -1.44E-06
    56 Broy./Diag. 0.50E+00    0.7     0.00000028     -5417.6243905674  2.74E-06
    57 Broy./Diag. 0.50E+00    0.7     0.00000034     -5417.6243886320  1.94E-06
    58 Broy./Diag. 0.50E+00    0.7     0.00000046     -5417.6243927233 -4.09E-06
    59 Broy./Diag. 0.50E+00    0.7     0.00000021     -5417.6243920451  6.78E-07
    60 Broy./Diag. 0.50E+00    0.7     0.00000016     -5417.6243917861  2.59E-07
    61 Broy./Diag. 0.50E+00    0.7     0.00000012     -5417.6243899188  1.87E-06
    62 Broy./Diag. 0.50E+00    0.7     0.00000071     -5417.6243897484  1.70E-07
    63 Broy./Diag. 0.50E+00    0.7     0.00000113     -5417.6243856540  4.09E-06
    64 Broy./Diag. 0.50E+00    0.7     0.00000041     -5417.6243927044 -7.05E-06
    65 Broy./Diag. 0.50E+00    0.7     0.00000037     -5417.6243955991 -2.89E-06
    66 Broy./Diag. 0.50E+00    0.7     0.00000021     -5417.6243947437  8.55E-07
    67 Broy./Diag. 0.50E+00    0.7     0.00000070     -5417.6243937707  9.73E-07
    68 Broy./Diag. 0.50E+00    0.7     0.00000028     -5417.6243971742 -3.40E-06
    69 Broy./Diag. 0.50E+00    0.7     0.00000053     -5417.6244001889 -3.01E-06
    70 Broy./Diag. 0.50E+00    0.7     0.00000045     -5417.6243974799  2.71E-06
    71 Broy./Diag. 0.50E+00    0.7     0.00000099     -5417.6243966325  8.47E-07
    72 Broy./Diag. 0.50E+00    0.7     0.00000160     -5417.6243971707 -5.38E-07
    73 Broy./Diag. 0.50E+00    0.7     0.00000140     -5417.6243902219  6.95E-06
    74 Broy./Diag. 0.50E+00    0.7     0.00000130     -5417.6243843103  5.91E-06
    75 Broy./Diag. 0.50E+00    0.7     0.00000100     -5417.6243866931 -2.38E-06
    76 Broy./Diag. 0.50E+00    0.7     0.00000104     -5417.6243972525 -1.06E-05
    77 Broy./Diag. 0.50E+00    0.7     0.00000103     -5417.6243976335 -3.81E-07
    78 Broy./Diag. 0.50E+00    0.9     0.00000063     -5417.6243884504  9.18E-06
    79 Broy./Diag. 0.50E+00    0.7     0.00000112     -5417.6243782518  1.02E-05
    80 Broy./Diag. 0.50E+00    0.7     0.00000061     -5417.6243818791 -3.63E-06
    81 Broy./Diag. 0.50E+00    0.7     0.00000214     -5417.6243870817 -5.20E-06
    82 Broy./Diag. 0.50E+00    0.7     0.00000193     -5417.6244036480 -1.66E-05
    83 Broy./Diag. 0.50E+00    0.7     0.00000160     -5417.6243966499  7.00E-06
    84 Broy./Diag. 0.50E+00    0.7     0.00000116     -5417.6243950535  1.60E-06
    85 Broy./Diag. 0.50E+00    0.7     0.00000070     -5417.6243867069  8.35E-06
    86 Broy./Diag. 0.50E+00    0.7     0.00000102     -5417.6243899888 -3.28E-06
    87 Broy./Diag. 0.50E+00    0.7     0.00000106     -5417.6243987814 -8.79E-06
    88 Broy./Diag. 0.50E+00    0.7     0.00000159     -5417.6243967370  2.04E-06
    89 Broy./Diag. 0.50E+00    0.7     0.00000157     -5417.6243867499  9.99E-06
    90 Broy./Diag. 0.50E+00    0.8     0.00000152     -5417.6243984636 -1.17E-05
    91 Broy./Diag. 0.50E+00    0.7     0.00000094     -5417.6243975542  9.09E-07
    92 Broy./Diag. 0.50E+00    0.7     0.00000093     -5417.6243858228  1.17E-05
    93 Broy./Diag. 0.50E+00    0.7     0.00000089     -5417.6243898221 -4.00E-06
    94 Broy./Diag. 0.50E+00    0.7     0.00000115     -5417.6243975099 -7.69E-06
    95 Broy./Diag. 0.50E+00    0.7     0.00000054     -5417.6243962723  1.24E-06
    96 Broy./Diag. 0.50E+00    0.7     0.00000100     -5417.6243948075  1.46E-06
    97 Broy./Diag. 0.50E+00    0.7     0.00000116     -5417.6243930066  1.80E-06
    98 Broy./Diag. 0.50E+00    0.7     0.00000124     -5417.6243915174  1.49E-06
    99 Broy./Diag. 0.50E+00    0.7     0.00000111     -5417.6243893662  2.15E-06
   100 Broy./Diag. 0.50E+00    0.7     0.00000104     -5417.6243847731  4.59E-06
   101 Broy./Diag. 0.50E+00    0.7     0.00000094     -5417.6243890709 -4.30E-06
   102 Broy./Diag. 0.50E+00    0.7     0.00000070     -5417.6243935504 -4.48E-06
   103 Broy./Diag. 0.50E+00    0.7     0.00000035     -5417.6243925417  1.01E-06
   104 Broy./Diag. 0.50E+00    0.7     0.00000041     -5417.6243898499  2.69E-06
   105 Broy./Diag. 0.50E+00    0.7     0.00000046     -5417.6243906707 -8.21E-07
   106 Broy./Diag. 0.50E+00    0.8     0.00000075     -5417.6243933607 -2.69E-06
   107 Broy./Diag. 0.50E+00    0.7     0.00000159     -5417.6243911493  2.21E-06
   108 Broy./Diag. 0.50E+00    0.8     0.00000151     -5417.6243947006 -3.55E-06
   109 Broy./Diag. 0.50E+00    0.7     0.00000140     -5417.6243918628  2.84E-06
   110 Broy./Diag. 0.50E+00    0.7     0.00000172     -5417.6243862882  5.57E-06
   111 Broy./Diag. 0.50E+00    0.7     0.00000203     -5417.6243882273 -1.94E-06
   112 Broy./Diag. 0.50E+00    0.8     0.00000176     -5417.6243908184 -2.59E-06
   113 Broy./Diag. 0.50E+00    0.7     0.00000167     -5417.6243927879 -1.97E-06
   114 Broy./Diag. 0.50E+00    0.7     0.00000195     -5417.6243932095 -4.22E-07
   115 Broy./Diag. 0.50E+00    0.7     0.00000128     -5417.6243925214  6.88E-07
   116 Broy./Diag. 0.50E+00    0.7     0.00000144     -5417.6243901842  2.34E-06
   117 Broy./Diag. 0.50E+00    0.7     0.00000083     -5417.6243889940  1.19E-06
   118 Broy./Diag. 0.50E+00    0.7     0.00000087     -5417.6243894811 -4.87E-07
   119 Broy./Diag. 0.50E+00    0.7     0.00000078     -5417.6243906907 -1.21E-06
   120 Broy./Diag. 0.50E+00    0.7     0.00000087     -5417.6243931915 -2.50E-06
   121 Broy./Diag. 0.50E+00    0.7     0.00000051     -5417.6243926995  4.92E-07
   122 Broy./Diag. 0.50E+00    0.7     0.00000053     -5417.6243896714  3.03E-06
   123 Broy./Diag. 0.50E+00    0.7     0.00000037     -5417.6243890090  6.62E-07
   124 Broy./Diag. 0.50E+00    0.7     0.00000050     -5417.6243896401 -6.31E-07
   125 Broy./Diag. 0.50E+00    0.8     0.00000052     -5417.6243911636 -1.52E-06
   126 Broy./Diag. 0.50E+00    0.7     0.00000024     -5417.6243924676 -1.30E-06
   127 Broy./Diag. 0.50E+00    0.7     0.00000025     -5417.6243919737  4.94E-07
   128 Broy./Diag. 0.50E+00    0.7     0.00000023     -5417.6243908771  1.10E-06
   129 Broy./Diag. 0.50E+00    0.7     0.00000019     -5417.6243898387  1.04E-06
   130 Broy./Diag. 0.50E+00    0.7     0.00000026     -5417.6243900965 -2.58E-07
   131 Broy./Diag. 0.50E+00    0.7     0.00000010     -5417.6243910831 -9.87E-07
   132 Broy./Diag. 0.50E+00    0.7     0.00000030     -5417.6243916864 -6.03E-07
   133 Broy./Diag. 0.50E+00    0.7     0.00000018     -5417.6243909600  7.26E-07
   134 Broy./Diag. 0.50E+00    0.7     0.00000042     -5417.6243902515  7.08E-07
   135 Broy./Diag. 0.50E+00    0.7     0.00000031     -5417.6243908503 -5.99E-07
   136 Broy./Diag. 0.50E+00    0.7     0.00000176     -5417.6243910165 -1.66E-07
   137 Broy./Diag. 0.50E+00    0.7     0.00000173     -5417.6243910888 -7.23E-08
   138 Broy./Diag. 0.50E+00    0.7     0.00000090     -5417.6243895677  1.52E-06
   139 Broy./Diag. 0.50E+00    0.7     0.00000137     -5417.6243889280  6.40E-07
   140 Broy./Diag. 0.50E+00    0.7     0.00000141     -5417.6243881561  7.72E-07
   141 Broy./Diag. 0.50E+00    0.7     0.00000240     -5417.6243911053 -2.95E-06
   142 Broy./Diag. 0.50E+00    0.7     0.00000167     -5417.6243930614 -1.96E-06
   143 Broy./Diag. 0.50E+00    0.7     0.00000235     -5417.6243937360 -6.75E-07
   144 Broy./Diag. 0.50E+00    0.7     0.00000146     -5417.6243899153  3.82E-06
   145 Broy./Diag. 0.50E+00    0.7     0.00000196     -5417.6243845913  5.32E-06
   146 Broy./Diag. 0.50E+00    0.7     0.00000296     -5417.6243890723 -4.48E-06
   147 Broy./Diag. 0.50E+00    0.7     0.00000302     -5417.6244018077 -1.27E-05
   148 Broy./Diag. 0.50E+00    0.7     0.00000227     -5417.6243973259  4.48E-06
   149 Broy./Diag. 0.50E+00    0.7     0.00000212     -5417.6243876405  9.69E-06
   150 Broy./Diag. 0.50E+00    0.7     0.00000223     -5417.6243831895  4.45E-06
   151 Broy./Diag. 0.50E+00    0.7     0.00000195     -5417.6243838841 -6.95E-07
   152 Broy./Diag. 0.50E+00    0.7     0.00000214     -5417.6243902245 -6.34E-06
   153 Broy./Diag. 0.50E+00    0.7     0.00000214     -5417.6243972675 -7.04E-06
   154 Broy./Diag. 0.50E+00    0.7     0.00000216     -5417.6244005438 -3.28E-06
   155 Broy./Diag. 0.50E+00    0.7     0.00000189     -5417.6243919478  8.60E-06
   156 Broy./Diag. 0.50E+00    0.7     0.00000167     -5417.6243863103  5.64E-06
   157 Broy./Diag. 0.50E+00    0.7     0.00000143     -5417.6243809146  5.40E-06
   158 Broy./Diag. 0.50E+00    0.7     0.00000098     -5417.6243856261 -4.71E-06
   159 Broy./Diag. 0.50E+00    0.7     0.00000082     -5417.6244021345 -1.65E-05
   160 Broy./Diag. 0.50E+00    0.7     0.00000058     -5417.6243997644  2.37E-06
   161 Broy./Diag. 0.50E+00    0.7     0.00000094     -5417.6243890491  1.07E-05
   162 Broy./Diag. 0.50E+00    0.7     0.00000084     -5417.6243854387  3.61E-06
   163 Broy./Diag. 0.50E+00    0.8     0.00000067     -5417.6243835745  1.86E-06
   164 Broy./Diag. 0.50E+00    0.8     0.00000062     -5417.6243904685 -6.89E-06
   165 Broy./Diag. 0.50E+00    0.7     0.00000063     -5417.6243985493 -8.08E-06
   166 Broy./Diag. 0.50E+00    0.7     0.00000057     -5417.6243968582  1.69E-06
   167 Broy./Diag. 0.50E+00    0.7     0.00000040     -5417.6243875641  9.29E-06
   168 Broy./Diag. 0.50E+00    0.7     0.00000046     -5417.6243832630  4.30E-06
   169 Broy./Diag. 0.50E+00    0.7     0.00000039     -5417.6243867915 -3.53E-06
   170 Broy./Diag. 0.50E+00    0.7     0.00000058     -5417.6243922823 -5.49E-06
   171 Broy./Diag. 0.50E+00    0.7     0.00000035     -5417.6243962821 -4.00E-06
   172 Broy./Diag. 0.50E+00    0.7     0.00000035     -5417.6243904619  5.82E-06
   173 Broy./Diag. 0.50E+00    0.7     0.00000046     -5417.6243878891  2.57E-06
   174 Broy./Diag. 0.50E+00    0.7     0.00000082     -5417.6243904327 -2.54E-06
   175 Broy./Diag. 0.50E+00    0.7     0.00000042     -5417.6243893229  1.11E-06
   176 Broy./Diag. 0.50E+00    0.7     0.00000045     -5417.6243909602 -1.64E-06
   177 Broy./Diag. 0.50E+00    0.7     0.00000032     -5417.6243934552 -2.50E-06
   178 Broy./Diag. 0.50E+00    0.7     0.00000049     -5417.6243926796  7.76E-07
   179 Broy./Diag. 0.50E+00    0.7     0.00000022     -5417.6243919014  7.78E-07
   180 Broy./Diag. 0.50E+00    0.7     0.00000064     -5417.6243920542 -1.53E-07
   181 Broy./Diag. 0.50E+00    0.7     0.00000043     -5417.6243906909  1.36E-06
   182 Broy./Diag. 0.50E+00    0.7     0.00000027     -5417.6243905054  1.85E-07
   183 Broy./Diag. 0.50E+00    0.7     0.00000055     -5417.6243896344  8.71E-07
   184 Broy./Diag. 0.50E+00    0.7     0.00000020     -5417.6243879502  1.68E-06
   185 Broy./Diag. 0.50E+00    0.7     0.00000427     -5417.6243874734  4.77E-07
   186 Broy./Diag. 0.50E+00    0.7     0.00000262     -5417.6243878252 -3.52E-07
   187 Broy./Diag. 0.50E+00    0.7     0.00000275     -5417.6243935651 -5.74E-06
   188 Broy./Diag. 0.50E+00    0.7     0.00000190     -5417.6243994524 -5.89E-06
   189 Broy./Diag. 0.50E+00    0.7     0.00000222     -5417.6243967771  2.68E-06
   190 Broy./Diag. 0.50E+00    0.7     0.00000245     -5417.6243899937  6.78E-06
   191 Broy./Diag. 0.50E+00    0.7     0.00000409     -5417.6243835929  6.40E-06
   192 Broy./Diag. 0.50E+00    0.7     0.00000426     -5417.6243839702 -3.77E-07
   193 Broy./Diag. 0.50E+00    0.7     0.00000300     -5417.6243984619 -1.45E-05
   194 Broy./Diag. 0.50E+00    0.7     0.00000478     -5417.6244018926 -3.43E-06
   195 Broy./Diag. 0.50E+00    0.7     0.00000370     -5417.6243941472  7.75E-06
   196 Broy./Diag. 0.50E+00    0.7     0.00000318     -5417.6243870395  7.11E-06
   197 Broy./Diag. 0.50E+00    0.7     0.00000292     -5417.6243799991  7.04E-06
   198 Broy./Diag. 0.50E+00    0.7     0.00000264     -5417.6243806492 -6.50E-07
   199 Broy./Diag. 0.50E+00    0.7     0.00000276     -5417.6243980831 -1.74E-05
   200 Broy./Diag. 0.50E+00    0.7     0.00000246     -5417.6244091777 -1.11E-05
   201 Broy./Diag. 0.50E+00    0.7     0.00000221     -5417.6244043741  4.80E-06
   202 Broy./Diag. 0.50E+00    0.7     0.00000160     -5417.6243895063  1.49E-05
   203 Broy./Diag. 0.50E+00    0.7     0.00000130     -5417.6243646042  2.49E-05
   204 Broy./Diag. 0.50E+00    0.7     0.00000121     -5417.6243827326 -1.81E-05
   205 Broy./Diag. 0.50E+00    0.7     0.00000096     -5417.6244042172 -2.15E-05
   206 Broy./Diag. 0.50E+00    0.7     0.00000093     -5417.6244077978 -3.58E-06
   207 Broy./Diag. 0.50E+00    0.7     0.00000082     -5417.6243960714  1.17E-05
   208 Broy./Diag. 0.50E+00    0.7     0.00000062     -5417.6243787852  1.73E-05
   209 Broy./Diag. 0.50E+00    0.7     0.00000059     -5417.6243778609  9.24E-07
   210 Broy./Diag. 0.50E+00    0.7     0.00000035     -5417.6243966959 -1.88E-05
   211 Broy./Diag. 0.50E+00    0.7     0.00000027     -5417.6243983612 -1.67E-06
   212 Broy./Diag. 0.50E+00    0.7     0.00000028     -5417.6243900507  8.31E-06
   213 Broy./Diag. 0.50E+00    0.7     0.00000032     -5417.6243845155  5.54E-06
   214 Broy./Diag. 0.50E+00    0.7     0.00000048     -5417.6243868876 -2.37E-06
   215 Broy./Diag. 0.50E+00    0.7     0.00000034     -5417.6243944226 -7.54E-06
   216 Broy./Diag. 0.50E+00    0.7     0.00000049     -5417.6243943486  7.40E-08
   217 Broy./Diag. 0.50E+00    0.7     0.00000036     -5417.6243876880  6.66E-06
   218 Broy./Diag. 0.50E+00    0.7     0.00000029     -5417.6243909902 -3.30E-06
   219 Broy./Diag. 0.50E+00    0.7     0.00000033     -5417.6243875395  3.45E-06
   220 Broy./Diag. 0.50E+00    0.8     0.00000029     -5417.6243896660 -2.13E-06
   221 Broy./Diag. 0.50E+00    0.8     0.00000020     -5417.6243939928 -4.33E-06
   222 Broy./Diag. 0.50E+00    0.7     0.00000009     -5417.6243934110  5.82E-07

  *** SCF run converged in   222 steps ***


  Electronic density on regular grids:       -575.9999999998        0.0000000002
  Core density on regular grids:              575.9999999999       -0.0000000001
  Total charge density on r-space grids:        0.0000000001
  Total charge density g-space grids:           0.0000000001

  Overlap energy of the core charge distribution:               0.00000000000000
  Self energy of the core charge distribution:              -8356.45371746162709
  Core Hamiltonian energy:                                   2339.47859937644353
  Hartree energy:                                            1141.33353205328694
  Exchange-correlation energy:                               -541.66550077041722
  Dispersion energy:                                           -0.30723620210815
  Electronic entropic energy:                                  -0.01007040624716
  Fermi energy:                                                 0.06210812865062

  Total energy:                                             -5417.62439341098798

  Integrated absolute spin density  :                              26.0280488536
  WARNING: S**2 computation does not yet treat fractional occupied orbitals

 The sum of alpha and beta density is written in cube file format to the file:

 Bulk_Opt-ELECTRON_DENSITY-1_0.cube

 The spin density is written in cube file format to the file:

 Bulk_Opt-SPIN_DENSITY-1_0.cube

 !-----------------------------------------------------------------------------!
                     Mulliken Population Analysis

 #  Atom  Element  Kind  Atomic population (alpha,beta) Net charge  Spin moment
       1     Ni       1         9.357172     8.607298     0.035531     0.749874
       2     Ni       1         9.356193     8.679319    -0.035511     0.676874
       3     Ni       1         9.356193     8.679319    -0.035511     0.676874
       4     Ni       1         9.357172     8.607298     0.035531     0.749874
       5     Ni       1         9.357172     8.607298     0.035530     0.749874
       6     Ni       1         9.356193     8.679319    -0.035511     0.676874
       7     Ni       1         9.356193     8.679319    -0.035511     0.676874
       8     Ni       1         9.357172     8.607298     0.035531     0.749874
       9     Ni       1         9.357172     8.607298     0.035530     0.749874
      10     Ni       1         9.356193     8.679319    -0.035511     0.676874
      11     Ni       1         9.356193     8.679318    -0.035511     0.676874
      12     Ni       1         9.357172     8.607298     0.035531     0.749874
      13     Ni       1         9.357172     8.607298     0.035531     0.749874
      14     Ni       1         9.356193     8.679319    -0.035511     0.676874
      15     Ni       1         9.356193     8.679319    -0.035511     0.676874
      16     Ni       1         9.357172     8.607298     0.035530     0.749873
      17     Ni       1         9.356206     8.679307    -0.035513     0.676899
      18     Ni       1         9.357202     8.607305     0.035493     0.749897
      19     Ni       1         9.357202     8.607305     0.035493     0.749897
      20     Ni       1         9.356206     8.679307    -0.035513     0.676900
      21     Ni       1         9.356206     8.679307    -0.035513     0.676899
      22     Ni       1         9.357202     8.607304     0.035494     0.749898
      23     Ni       1         9.357202     8.607304     0.035494     0.749898
      24     Ni       1         9.356206     8.679307    -0.035513     0.676899
      25     Ni       1         9.356206     8.679307    -0.035513     0.676899
      26     Ni       1         9.357202     8.607305     0.035493     0.749897
      27     Ni       1         9.357202     8.607304     0.035494     0.749898
      28     Ni       1         9.356206     8.679307    -0.035513     0.676899
      29     Ni       1         9.356206     8.679307    -0.035513     0.676900
      30     Ni       1         9.357202     8.607305     0.035493     0.749897
      31     Ni       1         9.357202     8.607305     0.035493     0.749897
      32     Ni       1         9.356206     8.679307    -0.035513     0.676899
 # Total charge and spin      299.414179   276.585821    -0.000000    22.828357

 !-----------------------------------------------------------------------------!

 !-----------------------------------------------------------------------------!
                           Hirshfeld Charges

  #Atom  Element  Kind  Ref Charge     Population       Spin moment  Net charge
      1       Ni     1      18.000    9.375   8.628            0.746     -0.003
      2       Ni     1      18.000    9.339   8.658            0.680      0.003
      3       Ni     1      18.000    9.339   8.658            0.680      0.003
      4       Ni     1      18.000    9.375   8.628            0.746     -0.003
      5       Ni     1      18.000    9.375   8.628            0.746     -0.003
      6       Ni     1      18.000    9.339   8.658            0.680      0.003
      7       Ni     1      18.000    9.339   8.658            0.680      0.003
      8       Ni     1      18.000    9.375   8.628            0.746     -0.003
      9       Ni     1      18.000    9.375   8.628            0.746     -0.003
     10       Ni     1      18.000    9.339   8.658            0.680      0.003
     11       Ni     1      18.000    9.339   8.658            0.680      0.003
     12       Ni     1      18.000    9.375   8.628            0.746     -0.003
     13       Ni     1      18.000    9.375   8.628            0.746     -0.003
     14       Ni     1      18.000    9.339   8.658            0.680      0.003
     15       Ni     1      18.000    9.339   8.658            0.680      0.003
     16       Ni     1      18.000    9.375   8.628            0.746     -0.003
     17       Ni     1      18.000    9.339   8.658            0.680      0.003
     18       Ni     1      18.000    9.375   8.628            0.746     -0.003
     19       Ni     1      18.000    9.375   8.628            0.746     -0.003
     20       Ni     1      18.000    9.339   8.658            0.680      0.003
     21       Ni     1      18.000    9.339   8.658            0.680      0.003
     22       Ni     1      18.000    9.375   8.628            0.746     -0.003
     23       Ni     1      18.000    9.375   8.628            0.746     -0.003
     24       Ni     1      18.000    9.339   8.658            0.680      0.003
     25       Ni     1      18.000    9.339   8.658            0.680      0.003
     26       Ni     1      18.000    9.375   8.628            0.746     -0.003
     27       Ni     1      18.000    9.375   8.628            0.746     -0.003
     28       Ni     1      18.000    9.339   8.658            0.680      0.003
     29       Ni     1      18.000    9.339   8.658            0.680      0.003
     30       Ni     1      18.000    9.375   8.628            0.746     -0.003
     31       Ni     1      18.000    9.375   8.628            0.746     -0.003
     32       Ni     1      18.000    9.339   8.658            0.680      0.003

  Total Charge                                                           -0.000
 !-----------------------------------------------------------------------------!

 ENERGY| Total FORCE_EVAL ( QS ) energy (a.u.):            -5417.624393410987977


 -------------------------------------------------------------------------------
 -                                                                             -
 -                                DBCSR STATISTICS                             -
 -                                                                             -
 -------------------------------------------------------------------------------
 COUNTER                                    TOTAL       BLAS       SMM       ACC
 flops    26 x    32 x    26           2303721472       0.0%    100.0%      0.0%
 flops    26 x    26 x    64         122257833984       0.0%    100.0%      0.0%
 flops    26 x    26 x    32         142634139648       0.0%    100.0%      0.0%
 flops inhomo. stacks                           0       0.0%      0.0%      0.0%
 flops total                       267.195695E+09       0.0%    100.0%      0.0%
 flops max/rank                      6.549650E+09       0.0%    100.0%      0.0%
 matmuls inhomo. stacks                         0       0.0%      0.0%      0.0%
 matmuls total                            4763008       0.0%    100.0%      0.0%
 number of processed stacks                716800       0.0%    100.0%      0.0%
 average stack size                                     0.0       6.6       0.0
 marketing flops                   191.248171E+09
 -------------------------------------------------------------------------------
 # multiplications                            448
 max memory usage/rank             246.497280E+06
 # max total images/rank                        5
 # max 3D layers                                1
 # MPI messages exchanged                 1218560
 MPI messages size (bytes):
  total size                        54.580478E+09
  min size                           6.656000E+03
  max size                         133.120000E+03
  average size                      44.790965E+03
 MPI breakdown and total messages size (bytes):
             size <=      128                   0                        0
       128 < size <=     8192              150528               1001914368
      8192 < size <=    32768              387376               6450742272
     32768 < size <=   131072              629812              40359468032
    131072 < size <=  4194304               50844               6768353280
   4194304 < size <= 16777216                   0                        0
  16777216 < size                               0                        0
 -------------------------------------------------------------------------------

 *** WARNING in dbcsr_mm.F:295 :: Using a non-square number of MPI ranks ***
 *** might lead to poor performance. Used ranks: 80 Suggested: 81 169    ***

 -------------------------------------------------------------------------------
 -                                                                             -
 -                      DBCSR MESSAGE PASSING PERFORMANCE                      -
 -                                                                             -
 -------------------------------------------------------------------------------
 ROUTINE             CALLS      AVE VOLUME [Bytes]
 MP_Group              448
 MP_Bcast                4                     12.
 MP_Allreduce         3149                      8.
 MP_Alltoall         12518                  50090.
 MP_Wait             50176
 MP_ISend            35840                  21223.
 MP_IRecv            35840                  20066.
 MP_Memory           81356
 -------------------------------------------------------------------------------

 MEMORY| Estimated peak process memory [MiB]                                 238

 -------------------------------------------------------------------------------
 ----                             MULTIGRID INFO                            ----
 -------------------------------------------------------------------------------
 count for grid        1:         606432          cutoff [a.u.]          300.00
 count for grid        2:         190256          cutoff [a.u.]          100.00
 count for grid        3:         145104          cutoff [a.u.]           33.33
 count for grid        4:          35568          cutoff [a.u.]           11.11
 count for grid        5:           3200          cutoff [a.u.]            3.70
 total gridlevel count  :         980560

 -------------------------------------------------------------------------------
 -                                                                             -
 -                         MESSAGE PASSING PERFORMANCE                         -
 -                                                                             -
 -------------------------------------------------------------------------------

 ROUTINE             CALLS      AVE VOLUME [Bytes]
 MP_Group                5
 MP_Bcast             2392                  82592.
 MP_Allreduce         3868                    229.
 MP_Sync              1785
 MP_Alltoall         12250                1017170.
 MP_ISendRecv       210930                   6677.
 MP_Wait            327002
 MP_ISend           134318                  47767.
 MP_IRecv           134276                  47780.
 MP_Recv               600                 212992.
 MP_Write_All            2                 106650.
 -------------------------------------------------------------------------------


 -------------------------------------------------------------------------------
 -                                                                             -
 -                           R E F E R E N C E S                               -
 -                                                                             -
 -------------------------------------------------------------------------------
 
 CP2K version 7.1, the CP2K developers group (2019).
 CP2K is freely available from https://www.cp2k.org/ .

 Schuett, Ole; Messmer, Peter; Hutter, Juerg; VandeVondele, Joost. 
 Electronic Structure Calculations on Graphics Processing Units, John
 Wiley & Sons, Ltd, 173-190 (2016). 
 GPU-Accelerated Sparse Matrix-Matrix Multiplication for
 Linear Scaling Density Functional Theory.
 https://dx.doi.org/10.1002/9781118670712.ch8

 Borstnik, U; VandeVondele, J; Weber, V; Hutter, J. 
 PARALLEL COMPUTING, 40 (5-6), 47-58 (2014). 
 Sparse matrix multiplication: The distributed block-compressed sparse
 row library.
 https://dx.doi.org/10.1016/j.parco.2014.03.012

 Hutter, J; Iannuzzi, M; Schiffmann, F; VandeVondele, J. 
 WIREs Comput Mol Sci., 4 (1), 15-25 (2014). 
 CP2K: atomistic simulations of condensed matter systems.
 https://dx.doi.org/10.1002/wcms.1159

 Marek, A; Blum, V; Johanni, R; Havu, V; Lang, B; Auckenthaler, T;
 Heinecke, A; Bungartz, H; Lederer, H. 
 Journal of Physics: Condensed Matter, 26 (21), (2014). 
 The ELPA library: scalable parallel eigenvalue solutions for
 electronic structure
 theory and computational science.
 https://dx.doi.org/10.1088/0953-8984/26/21/213201

 Grimme, S; Ehrlich, S; Goerigk, L. 
 JOURNAL OF COMPUTATIONAL CHEMISTRY, 32, 1456 (2011). 
 Effect of the damping function in dispersion corrected density functional theory.
 https://dx.doi.org/10.1002/jcc.21759

 Grimme, S; Antony, J; Ehrlich, S; Krieg, H. 
 JOURNAL OF CHEMICAL PHYSICS, 132 (15), 154104 (2010). 
 A consistent and accurate ab initio parametrization of density
 functional dispersion correction (DFT-D) for the 94 elements H-Pu.
 https://dx.doi.org/10.1063/1.3382344

 VandeVondele, J; Hutter, J. 
 JOURNAL OF CHEMICAL PHYSICS, 127 (11), 114105 (2007). 
 Gaussian basis sets for accurate calculations on molecular systems in
 gas and condensed phases.
 https://dx.doi.org/10.1063/1.2770708

 Krack, M. 
 THEORETICAL CHEMISTRY ACCOUNTS, 114 (1-3), 145-152 (2005). 
 Pseudopotentials for H to Kr optimized for gradient-corrected
 exchange-correlation functionals.
 https://dx.doi.org/10.1007/s00214-005-0655-y

 VandeVondele, J; Krack, M; Mohamed, F; Parrinello, M; Chassaing, T;
 Hutter, J. COMPUTER PHYSICS COMMUNICATIONS, 167 (2), 103-128 (2005). 
 QUICKSTEP: Fast and accurate density functional calculations using a
 mixed Gaussian and plane waves approach.
 https://dx.doi.org/10.1016/j.cpc.2004.12.014

 Frigo, M; Johnson, SG. 
 PROCEEDINGS OF THE IEEE, 93 (2), 216-231 (2005). 
 The design and implementation of FFTW3.
 https://dx.doi.org/10.1109/JPROC.2004.840301

 Hartwigsen, C; Goedecker, S; Hutter, J. 
 PHYSICAL REVIEW B, 58 (7), 3641-3662 (1998). 
 Relativistic separable dual-space Gaussian pseudopotentials from H to Rn.
 https://dx.doi.org/10.1103/PhysRevB.58.3641

 Lippert, G; Hutter, J; Parrinello, M. 
 MOLECULAR PHYSICS, 92 (3), 477-487 (1997). 
 A hybrid Gaussian and plane wave density functional scheme.
 https://dx.doi.org/10.1080/002689797170220

 Perdew, JP; Burke, K; Ernzerhof, M. 
 PHYSICAL REVIEW LETTERS, 77 (18), 3865-3868 (1996). 
 Generalized gradient approximation made simple.
 https://dx.doi.org/10.1103/PhysRevLett.77.3865

 Goedecker, S; Teter, M; Hutter, J. 
 PHYSICAL REVIEW B, 54 (3), 1703-1710 (1996). 
 Separable dual-space Gaussian pseudopotentials.
 https://dx.doi.org/10.1103/PhysRevB.54.1703


 -------------------------------------------------------------------------------
 -                                                                             -
 -                                T I M I N G                                  -
 -                                                                             -
 -------------------------------------------------------------------------------
 SUBROUTINE                       CALLS  ASD         SELF TIME        TOTAL TIME
                                MAXIMUM       AVERAGE  MAXIMUM  AVERAGE  MAXIMUM
 CP2K                                 1  1.0    0.048    0.073  158.427  158.430
 qs_energies                          1  2.0    0.003    0.003  157.899  157.900
 scf_env_do_scf                       1  3.0    0.000    0.001  156.379  156.391
 scf_env_do_scf_inner_loop          222  4.0    0.013    0.144  156.373  156.384
 qs_ks_update_qs_env                222  5.0    0.001    0.002   77.623   77.636
 rebuild_ks_matrix                  222  6.0    0.001    0.001   77.465   77.478
 qs_ks_build_kohn_sham_matrix       222  7.0    0.024    0.032   77.464   77.477
 pw_transfer                       9113  9.5    0.437    0.514   38.307   40.235
 sum_up_and_integrate               222  8.0    0.075    0.103   40.220   40.230
 integrate_v_rspace                 444  9.0   18.790   24.333   40.144   40.165
 fft_wrap_pw1pw2                   8669 10.5    0.051    0.062   37.786   39.730
 qs_rho_update_rho                  223  5.0    0.001    0.002   37.514   37.540
 calculate_rho_elec                 446  6.0   17.281   21.696   37.512   37.539
 fft_wrap_pw1pw2_300               5109 11.6    1.539    1.888   35.249   37.259
 fft3d_ps                          8669 12.5   10.450   14.171   33.311   35.544
 qs_vxc_create                      222  8.0    0.003    0.005   35.300   35.456
 xc_vxc_pw_create                   222  9.0    0.564    0.698   35.297   35.453
 qs_scf_new_mos                     222  5.0    0.004    0.004   31.458   31.506
 eigensolver                        444  6.0    0.019    0.030   26.581   26.597
 rs_pw_transfer                    4454  9.5    0.038    0.044   21.171   24.643
 mp_alltoall_z22v                  8669 14.5   19.148   23.717   19.148   23.717
 cp_fm_diag_elpa                    446  7.0    0.002    0.003   22.125   22.249
 cp_fm_diag_elpa_base               446  8.0   21.775   22.004   22.121   22.245
 xc_rho_set_and_dset_create         222 10.0    0.351    0.396   17.897   21.976
 density_rs2pw                      446  7.0    0.017    0.020   17.375   21.252
 yz_to_x                           2223 13.8    0.481    0.750   11.974   15.378
 potential_pw2rs                    444 10.0    0.021    0.022   14.714   14.747
 xc_functional_eval                 222 11.0    0.001    0.002    8.417   12.511
 pbe_lsd_eval                       222 12.0    8.416   12.510    8.416   12.510
 mp_alltoall_d11v                  6255  9.3    8.093   12.447    8.093   12.447
 rs_distribute_matrix               890  8.5    0.144    0.279    7.418   11.714
 mp_waitany                      103592 11.5    7.114   11.136    7.114   11.136
 rs_pw_transfer_RS2PW_300           448  9.0    2.708    3.293    7.187   10.719
 gspace_mixing                      221  5.0    0.120    0.176    9.507    9.507
 x_to_yz                           2886 13.4    1.320    2.064    8.665    9.320
 rs_pw_transfer_PW2RS_300           446 12.0    4.008    4.184    6.784    6.981
 broyden_mixing                     221  6.0    5.654    5.758    6.099    6.107
 cp_fm_cholesky_restore            1332  7.0    4.304    4.472    4.304    4.472
 -------------------------------------------------------------------------------

 The number of warnings for this run is : 3
 
 -------------------------------------------------------------------------------
  **** **** ******  **  PROGRAM ENDED AT                 2022-10-13 12:46:51.451
 ***** ** ***  *** **   PROGRAM RAN ON                             node-c12o-002
 **    ****   ******    PROGRAM RAN BY                                   mmm1169
 ***** **    ** ** **   PROGRAM PROCESS ID                                 24952
  **** **  *******  **  PROGRAM STOPPED IN /lustre/scratch/mmm1169/work/other/cp
                                           2k_forum/ni_bulk/aspc-broyden-222-sme
                                           ar-slab/slab_multiplicity-33-alpha-5e
                                           -1-beta-5e-1-scf-1e-3-1e-4-5e-5-1e-5-
                                           1e-6-1e-7
