 DBCSR| CPU Multiplication driver                                           BLAS (U)
 DBCSR| Multrec recursion limit                                              512 (U)
 DBCSR| Multiplication stack size                                           1000 (D)
 DBCSR| Maximum elements for images                                    UNLIMITED (U)
 DBCSR| Multiplicative factor virtual images                                   1 (U)
 DBCSR| Use multiplication densification                                       T (D)
 DBCSR| Multiplication size stacks                                             3 (U)
 DBCSR| Use memory pool for CPU allocation                                     F (U)
 DBCSR| Number of 3D layers                                               SINGLE (U)
 DBCSR| Use MPI memory allocation                                              F (U)
 DBCSR| Use RMA algorithm                                                      F (U)
 DBCSR| Use Communication thread                                               T (U)
 DBCSR| Communication thread load                                             87 (D)
 DBCSR| MPI: My process id                                                     0
 DBCSR| MPI: Number of processes                                             512
 DBCSR| OMP: Current number of threads                                         1
 DBCSR| OMP: Max number of threads                                             1
 DBCSR| Split modifier for TAS multiplication algorithm                  1.0E+00 (U)


  **** **** ******  **  PROGRAM STARTED AT               2023-07-18 15:30:24.437
 ***** ** ***  *** **   PROGRAM STARTED ON                             nid001327
 **    ****   ******    PROGRAM STARTED BY                                cahart
 ***** **    ** ** **   PROGRAM PROCESS ID                                143559
  **** **  *******  **  PROGRAM STARTED IN /mnt/lustre/a2fs-work2/work/e05/e05/c
                                           ahart/postdoc/masters/pt3ni/other/fm/
                                           bulk/atoms-256/brute_force/restarts-2
                                           2_scf-1e-2/tz_temp-2000/1E-2

 CP2K| version string:                 CP2K version 2023.1 (Development Version)
 CP2K| source code revision number:                                  git:3f1a084
 CP2K| cp2kflags: omp libint fftw3 libxc elpa parallel scalapack plumed2 mkl    
 CP2K| is freely available from                            https://www.cp2k.org/
 CP2K| Program compiled at                          Mon 17 Jul 20:47:51 BST 2023
 CP2K| Program compiled on                                                  ln04
 CP2K| Program compiled for                                              ARCHER2
 CP2K| Data directory path      /work/y07/shared/apps/core/cp2k/cp2k-2023.1/data
 CP2K| Input file name                                                  cp2k.inp

 GLOBAL| Force Environment number                                              1
 GLOBAL| Basis set file name                                    BASIS_MOLOPT_UCL
 GLOBAL| Potential file name                                      GTH_POTENTIALS
 GLOBAL| MM Potential file name                                     MM_POTENTIAL
 GLOBAL| Coordinate file name                                           bulk.xyz
 GLOBAL| Method name                                                        CP2K
 GLOBAL| Project name                                                      Pt3Ni
 GLOBAL| Run type                                                         ENERGY
 GLOBAL| FFT library                                                       FFTW3
 GLOBAL| Diagonalization library                                            ELPA
 GLOBAL| DGEMM library                                                      BLAS
 GLOBAL| Minimum number of eigenvectors for ELPA usage                        16
 GLOBAL| Orthonormality check for eigenvectors                          DISABLED
 GLOBAL| Matrix multiplication library                                 ScaLAPACK
 GLOBAL| All-to-all communication in single precision                          F
 GLOBAL| FFTs using library dependent lengths                                  F
 GLOBAL| Grid backend                                                       AUTO
 GLOBAL| Global print level                                               MEDIUM
 GLOBAL| MPI I/O enabled                                                       T
 GLOBAL| Total number of message passing processes                           512
 GLOBAL| Number of threads for this process                                    1
 GLOBAL| This output is from process                                           0
 GLOBAL| Stack size for threads created by OpenMP (OMP_STACKSIZE)        default
 GLOBAL| CPU model name                          AMD EPYC 7742 64-Core Processor
 GLOBAL| CPUID                                                              1002

 MEMORY| system memory details [Kb]
 MEMORY|                        rank 0           min           max       average
 MEMORY| MemTotal            263341976     263341976     263341976     263341976
 MEMORY| MemFree             229733036     229368672     230080484     229764889
 MEMORY| Buffers                  3088          3088          4256          3927
 MEMORY| Cached                2308404       2165092       3306400       2592182
 MEMORY| Slab                  3035812       2975152       3035812       3009857
 MEMORY| SReclaimable           254584        233204        276632        259642
 MEMORY| MemLikelyFree       232299112     232298800     232956460     232620641


 *** Fundamental physical constants (SI units) ***

 *** Literature: B. J. Mohr and B. N. Taylor,
 ***             CODATA recommended values of the fundamental physical
 ***             constants: 2006, Web Version 5.1
 ***             http://physics.nist.gov/constants

 Speed of light in vacuum [m/s]                             2.99792458000000E+08
 Magnetic constant or permeability of vacuum [N/A**2]       1.25663706143592E-06
 Electric constant or permittivity of vacuum [F/m]          8.85418781762039E-12
 Planck constant (h) [J*s]                                  6.62606896000000E-34
 Planck constant (h-bar) [J*s]                              1.05457162825177E-34
 Elementary charge [C]                                      1.60217648700000E-19
 Electron mass [kg]                                         9.10938215000000E-31
 Electron g factor [ ]                                     -2.00231930436220E+00
 Proton mass [kg]                                           1.67262163700000E-27
 Fine-structure constant                                    7.29735253760000E-03
 Rydberg constant [1/m]                                     1.09737315685270E+07
 Avogadro constant [1/mol]                                  6.02214179000000E+23
 Boltzmann constant [J/K]                                   1.38065040000000E-23
 Atomic mass unit [kg]                                      1.66053878200000E-27
 Bohr radius [m]                                            5.29177208590000E-11

 *** Conversion factors ***

 [u] -> [a.u.]                                              1.82288848426455E+03
 [Angstrom] -> [Bohr] = [a.u.]                              1.88972613288564E+00
 [a.u.] = [Bohr] -> [Angstrom]                              5.29177208590000E-01
 [a.u.] -> [s]                                              2.41888432650478E-17
 [a.u.] -> [fs]                                             2.41888432650478E-02
 [a.u.] -> [J]                                              4.35974393937059E-18
 [a.u.] -> [N]                                              8.23872205491840E-08
 [a.u.] -> [K]                                              3.15774647902944E+05
 [a.u.] -> [kJ/mol]                                         2.62549961709828E+03
 [a.u.] -> [kcal/mol]                                       6.27509468713739E+02
 [a.u.] -> [Pa]                                             2.94210107994716E+13
 [a.u.] -> [bar]                                            2.94210107994716E+08
 [a.u.] -> [atm]                                            2.90362800883016E+08
 [a.u.] -> [eV]                                             2.72113838565563E+01
 [a.u.] -> [Hz]                                             6.57968392072181E+15
 [a.u.] -> [1/cm] (wave numbers)                            2.19474631370540E+05
 [a.u./Bohr**2] -> [1/cm]                                   5.14048714338585E+03
 

 CELL_TOP| Volume [angstrom^3]:                                      3652.264000
 CELL_TOP| Vector a [angstrom    15.400     0.000     0.000   |a| =    15.400000
 CELL_TOP| Vector b [angstrom     0.000    15.400     0.000   |b| =    15.400000
 CELL_TOP| Vector c [angstrom     0.000     0.000    15.400   |c| =    15.400000
 CELL_TOP| Angle (b,c), alpha [degree]:                                90.000000
 CELL_TOP| Angle (a,c), beta  [degree]:                                90.000000
 CELL_TOP| Angle (a,b), gamma [degree]:                                90.000000
 CELL_TOP| Numerically orthorhombic:                                         YES
 CELL_TOP| Periodicity                                                       XYZ

 GENERATE|  Preliminary Number of Bonds generated:                             0
 GENERATE|  Achieved consistency in connectivity generation.

 CELL| Volume [angstrom^3]:                                          3652.264000
 CELL| Vector a [angstrom]:      15.400     0.000     0.000   |a| =    15.400000
 CELL| Vector b [angstrom]:       0.000    15.400     0.000   |b| =    15.400000
 CELL| Vector c [angstrom]:       0.000     0.000    15.400   |c| =    15.400000
 CELL| Angle (b,c), alpha [degree]:                                    90.000000
 CELL| Angle (a,c), beta  [degree]:                                    90.000000
 CELL| Angle (a,b), gamma [degree]:                                    90.000000
 CELL| Numerically orthorhombic:                                             YES
 CELL| Periodicity                                                           XYZ

 CELL_REF| Volume [angstrom^3]:                                      3652.264000
 CELL_REF| Vector a [angstrom    15.400     0.000     0.000   |a| =    15.400000
 CELL_REF| Vector b [angstrom     0.000    15.400     0.000   |b| =    15.400000
 CELL_REF| Vector c [angstrom     0.000     0.000    15.400   |c| =    15.400000
 CELL_REF| Angle (b,c), alpha [degree]:                                90.000000
 CELL_REF| Angle (a,c), beta  [degree]:                                90.000000
 CELL_REF| Angle (a,b), gamma [degree]:                                90.000000
 CELL_REF| Numerically orthorhombic:                                         YES
 CELL_REF| Periodicity                                                       XYZ

 *******************************************************************************
 *******************************************************************************
 **                                                                           **
 **     #####                         ##              ##                      **
 **    ##   ##            ##          ##              ##                      **
 **   ##     ##                       ##            ######                    **
 **   ##     ##  ##   ##  ##   #####  ##  ##   ####   ##    #####    #####    **
 **   ##     ##  ##   ##  ##  ##      ## ##   ##      ##   ##   ##  ##   ##   **
 **   ##  ## ##  ##   ##  ##  ##      ####     ###    ##   ######   ######    **
 **    ##  ###   ##   ##  ##  ##      ## ##      ##   ##   ##       ##        **
 **     #######   #####   ##   #####  ##  ##  ####    ##    #####   ##        **
 **           ##                                                    ##        **
 **                                                                           **
 **                                                ... make the atoms dance   **
 **                                                                           **
 **            Copyright (C) by CP2K developers group (2000-2023)             **
 **                      J. Chem. Phys. 152, 194103 (2020)                    **
 **                                                                           **
 *******************************************************************************

 *** WARNING in qs_environment.F:1456 :: Number of electrons will be ***
 *** overwritten by NELEC_ALPHA and NELEC_BETA, multiplicity will be ***
 *** ignored.                                                        ***

 Number of electrons should be                                              4608
 Sum of NELEC_ALPHA and NELEC_BETA is                                   4608.000

 DFT| Spin unrestricted (spin-polarized) Kohn-Sham calculation               UKS
 DFT| Multiplicity                                                           129
 DFT| Number of spin states                                                    2
 DFT| Charge                                                                   0
 DFT| Self-interaction correction (SIC)                                       NO
 DFT| Cutoffs: density                                              1.000000E-10
 DFT|          gradient                                             1.000000E-10
 DFT|          tau                                                  1.000000E-10
 DFT|          cutoff_smoothing_range                               0.000000E+00
 DFT| XC density smoothing                                                  NONE
 DFT| XC derivatives                                                          PW

 FUNCTIONAL| PBE:
 FUNCTIONAL| J.P.Perdew, K.Burke, M.Ernzerhof, Phys. Rev. Letter, vol. 77, n 18,
 FUNCTIONAL|  pp. 3865-3868, (1996){spin polarized}                             

 vdW POTENTIAL|                                                   Pair Potential
 vdW POTENTIAL|          DFT-D3 (Version 3.1)
 vdW POTENTIAL|          Potential Form: S. Grimme et al, JCP 132: 154104 (2010)
 vdW POTENTIAL|          BJ Damping: S. Grimme et al, JCC 32: 1456 (2011)
 vdW POTENTIAL|          Cutoff Radius [Bohr]:                             20.00
 vdW POTENTIAL|          s6 Scaling Factor:                               1.0000
 vdW POTENTIAL|          a1 Damping Factor:                               0.4289
 vdW POTENTIAL|          s8 Scaling Factor:                               0.7875
 vdW POTENTIAL|          a2 Damping Factor:                               4.4407
 vdW POTENTIAL|          Cutoff for CN calculation:                   0.1000E-05

 QS| Method:                                                                 GPW
 QS| Density plane wave grid type                        NON-SPHERICAL FULLSPACE
 QS| Number of grid levels:                                                    4
 QS| Density cutoff [a.u.]:                                                250.0
 QS| Multi grid cutoff [a.u.]: 1) grid level                               250.0
 QS|                           2) grid level                                83.3
 QS|                           3) grid level                                27.8
 QS|                           4) grid level                                 9.3
 QS| Grid level progression factor:                                          3.0
 QS| Relative density cutoff [a.u.]:                                        30.0
 QS| Interaction thresholds: eps_pgf_orb:                                1.0E-07
 QS|                         eps_filter_matrix:                          0.0E+00
 QS|                         eps_core_charge:                            1.0E-16
 QS|                         eps_rho_gspace:                             1.0E-14
 QS|                         eps_rho_rspace:                             1.0E-14
 QS|                         eps_gvg_rspace:                             1.0E-07
 QS|                         eps_ppl:                                    1.0E-02
 QS|                         eps_ppnl:                                   1.0E-09


 ATOMIC KIND INFORMATION

  1. Atomic kind: Ni                                    Number of atoms:      64

     Orbital Basis Set                                        TZVP-MOLOPT-SR-GTH

       Number of orbital shell sets:                                           1
       Number of orbital shells:                                              11
       Number of primitive Cartesian functions:                                6
       Number of Cartesian basis functions:                                   41
       Number of spherical basis functions:                                   35
       Norm type:                                                              2

       Normalised Cartesian orbitals:

                        Set   Shell   Orbital            Exponent    Coefficient

                          1       1    2s               10.077428      -0.302595
                                                         5.847736      -0.222193
                                                         2.494033       0.574584
                                                         0.988355       0.318352
                                                         0.344978       0.055413
                                                         0.099466       0.030222

                          1       2    3s               10.077428      -0.109296
                                                         5.847736      -0.204670
                                                         2.494033      -0.072994
                                                         0.988355      -0.407289
                                                         0.344978       0.098705
                                                         0.099466       0.115595

                          1       3    4s               10.077428       0.007401
                                                         5.847736      -0.106218
                                                         2.494033       0.440206
                                                         0.988355      -0.350232
                                                         0.344978       0.574016
                                                         0.099466      -0.113477

                          1       4    5s               10.077428       0.961462
                                                         5.847736       1.735304
                                                         2.494033      -0.914520
                                                         0.988355       0.345896
                                                         0.344978       0.117877
                                                         0.099466       0.026434

                          1       5    3px              10.077428      -3.378145
                                                         5.847736       3.169144
                                                         2.494033       2.066060
                                                         0.988355       0.550774
                                                         0.344978       0.079106
                                                         0.099466      -0.015734
                          1       5    3py              10.077428      -3.378145
                                                         5.847736       3.169144
                                                         2.494033       2.066060
                                                         0.988355       0.550774
                                                         0.344978       0.079106
                                                         0.099466      -0.015734
                          1       5    3pz              10.077428      -3.378145
                                                         5.847736       3.169144
                                                         2.494033       2.066060
                                                         0.988355       0.550774
                                                         0.344978       0.079106
                                                         0.099466      -0.015734

                          1       6    4px              10.077428      -0.644889
                                                         5.847736       0.547979
                                                         2.494033       0.967294
                                                         0.988355       0.073434
                                                         0.344978       0.050765
                                                         0.099466       0.065502
                          1       6    4py              10.077428      -0.644889
                                                         5.847736       0.547979
                                                         2.494033       0.967294
                                                         0.988355       0.073434
                                                         0.344978       0.050765
                                                         0.099466       0.065502
                          1       6    4pz              10.077428      -0.644889
                                                         5.847736       0.547979
                                                         2.494033       0.967294
                                                         0.988355       0.073434
                                                         0.344978       0.050765
                                                         0.099466       0.065502

                          1       7    5px              10.077428       0.764195
                                                         5.847736      -0.031006
                                                         2.494033       1.906720
                                                         0.988355       0.247914
                                                         0.344978      -0.445294
                                                         0.099466       0.005651
                          1       7    5py              10.077428       0.764195
                                                         5.847736      -0.031006
                                                         2.494033       1.906720
                                                         0.988355       0.247914
                                                         0.344978      -0.445294
                                                         0.099466       0.005651
                          1       7    5pz              10.077428       0.764195
                                                         5.847736      -0.031006
                                                         2.494033       1.906720
                                                         0.988355       0.247914
                                                         0.344978      -0.445294
                                                         0.099466       0.005651

                          1       8    4dx2             10.077428       7.796629
                                                         5.847736       8.441930
                                                         2.494033       2.856564
                                                         0.988355       0.427548
                                                         0.344978       0.061999
                                                         0.099466       0.008926
                          1       8    4dxy             10.077428      13.504157
                                                         5.847736      14.621851
                                                         2.494033       4.947714
                                                         0.988355       0.740535
                                                         0.344978       0.107385
                                                         0.099466       0.015461
                          1       8    4dxz             10.077428      13.504157
                                                         5.847736      14.621851
                                                         2.494033       4.947714
                                                         0.988355       0.740535
                                                         0.344978       0.107385
                                                         0.099466       0.015461
                          1       8    4dy2             10.077428       7.796629
                                                         5.847736       8.441930
                                                         2.494033       2.856564
                                                         0.988355       0.427548
                                                         0.344978       0.061999
                                                         0.099466       0.008926
                          1       8    4dyz             10.077428      13.504157
                                                         5.847736      14.621851
                                                         2.494033       4.947714
                                                         0.988355       0.740535
                                                         0.344978       0.107385
                                                         0.099466       0.015461
                          1       8    4dz2             10.077428       7.796629
                                                         5.847736       8.441930
                                                         2.494033       2.856564
                                                         0.988355       0.427548
                                                         0.344978       0.061999
                                                         0.099466       0.008926

                          1       9    5dx2             10.077428      -7.900462
                                                         5.847736      -8.487046
                                                         2.494033      -2.930041
                                                         0.988355      -0.403696
                                                         0.344978       0.088100
                                                         0.099466       0.016065
                          1       9    5dxy             10.077428     -13.684001
                                                         5.847736     -14.699995
                                                         2.494033      -5.074980
                                                         0.988355      -0.699222
                                                         0.344978       0.152594
                                                         0.099466       0.027826
                          1       9    5dxz             10.077428     -13.684001
                                                         5.847736     -14.699995
                                                         2.494033      -5.074980
                                                         0.988355      -0.699222
                                                         0.344978       0.152594
                                                         0.099466       0.027826
                          1       9    5dy2             10.077428      -7.900462
                                                         5.847736      -8.487046
                                                         2.494033      -2.930041
                                                         0.988355      -0.403696
                                                         0.344978       0.088100
                                                         0.099466       0.016065
                          1       9    5dyz             10.077428     -13.684001
                                                         5.847736     -14.699995
                                                         2.494033      -5.074980
                                                         0.988355      -0.699222
                                                         0.344978       0.152594
                                                         0.099466       0.027826
                          1       9    5dz2             10.077428      -7.900462
                                                         5.847736      -8.487046
                                                         2.494033      -2.930041
                                                         0.988355      -0.403696
                                                         0.344978       0.088100
                                                         0.099466       0.016065

                          1      10    6dx2             10.077428       4.546077
                                                         5.847736       1.882393
                                                         2.494033       2.955176
                                                         0.988355      -0.717181
                                                         0.344978      -0.225761
                                                         0.099466       0.017786
                          1      10    6dxy             10.077428       7.874037
                                                         5.847736       3.260400
                                                         2.494033       5.118515
                                                         0.988355      -1.242193
                                                         0.344978      -0.391029
                                                         0.099466       0.030807
                          1      10    6dxz             10.077428       7.874037
                                                         5.847736       3.260400
                                                         2.494033       5.118515
                                                         0.988355      -1.242193
                                                         0.344978      -0.391029
                                                         0.099466       0.030807
                          1      10    6dy2             10.077428       4.546077
                                                         5.847736       1.882393
                                                         2.494033       2.955176
                                                         0.988355      -0.717181
                                                         0.344978      -0.225761
                                                         0.099466       0.017786
                          1      10    6dyz             10.077428       7.874037
                                                         5.847736       3.260400
                                                         2.494033       5.118515
                                                         0.988355      -1.242193
                                                         0.344978      -0.391029
                                                         0.099466       0.030807
                          1      10    6dz2             10.077428       4.546077
                                                         5.847736       1.882393
                                                         2.494033       2.955176
                                                         0.988355      -0.717181
                                                         0.344978      -0.225761
                                                         0.099466       0.017786

                          1      11    5fx3             10.077428      -3.535394
                                                         5.847736       2.986110
                                                         2.494033       0.050340
                                                         0.988355       0.512187
                                                         0.344978       0.078257
                                                         0.099466       0.002668
                          1      11    5fx2y            10.077428      -7.905381
                                                         5.847736       6.677145
                                                         2.494033       0.112563
                                                         0.988355       1.145286
                                                         0.344978       0.174988
                                                         0.099466       0.005967
                          1      11    5fx2z            10.077428      -7.905381
                                                         5.847736       6.677145
                                                         2.494033       0.112563
                                                         0.988355       1.145286
                                                         0.344978       0.174988
                                                         0.099466       0.005967
                          1      11    5fxy2            10.077428      -7.905381
                                                         5.847736       6.677145
                                                         2.494033       0.112563
                                                         0.988355       1.145286
                                                         0.344978       0.174988
                                                         0.099466       0.005967
                          1      11    5fxyz            10.077428     -13.692521
                                                         5.847736      11.565154
                                                         2.494033       0.194965
                                                         0.988355       1.983693
                                                         0.344978       0.303088
                                                         0.099466       0.010334
                          1      11    5fxz2            10.077428      -7.905381
                                                         5.847736       6.677145
                                                         2.494033       0.112563
                                                         0.988355       1.145286
                                                         0.344978       0.174988
                                                         0.099466       0.005967
                          1      11    5fy3             10.077428      -3.535394
                                                         5.847736       2.986110
                                                         2.494033       0.050340
                                                         0.988355       0.512187
                                                         0.344978       0.078257
                                                         0.099466       0.002668
                          1      11    5fy2z            10.077428      -7.905381
                                                         5.847736       6.677145
                                                         2.494033       0.112563
                                                         0.988355       1.145286
                                                         0.344978       0.174988
                                                         0.099466       0.005967
                          1      11    5fyz2            10.077428      -7.905381
                                                         5.847736       6.677145
                                                         2.494033       0.112563
                                                         0.988355       1.145286
                                                         0.344978       0.174988
                                                         0.099466       0.005967
                          1      11    5fz3             10.077428      -3.535394
                                                         5.847736       2.986110
                                                         2.494033       0.050340
                                                         0.988355       0.512187
                                                         0.344978       0.078257
                                                         0.099466       0.002668

       Atomic covalent radius [Angstrom]:                                  1.150

       Atomic van der Waals radius [Angstrom]:                             1.630

     GTH Potential information for                                   GTH-PBE-q18

       Description:                       Goedecker-Teter-Hutter pseudopotential
                                           Goedecker et al., PRB 54, 1703 (1996)
                                          Hartwigsen et al., PRB 58, 3641 (1998)
                                                      Krack, TCA 114, 145 (2005)

       Gaussian exponent of the core charge distribution:               4.081633
       Electronic configuration (s p d ...):                           4   6   8

       Parameters of the local part of the GTH pseudopotential:

                          rloc        C1          C2          C3          C4
                        0.350000    2.102166    0.648484

       Parameters of the non-local part of the GTH pseudopotential:

                   l      r(l)      h(i,j,l)

                   0    0.261295    0.622658    9.970227
                                    9.970227  -12.871507
                   1    0.224253  -11.142708   12.429566
                                   12.429566  -14.706861
                   2    0.215348  -12.628146

  2. Atomic kind: Pt                                    Number of atoms:     192

     Orbital Basis Set                                        TZVP-MOLOPT-SR-GTH

       Number of orbital shell sets:                                           1
       Number of orbital shells:                                              11
       Number of primitive Cartesian functions:                                6
       Number of Cartesian basis functions:                                   41
       Number of spherical basis functions:                                   35
       Norm type:                                                              2

       Normalised Cartesian orbitals:

                        Set   Shell   Orbital            Exponent    Coefficient

                          1       1    2s                3.630668      -1.842736
                                                         3.114659       5.470062
                                                         1.999981      -2.195810
                                                         0.885340       0.062543
                                                         0.330796       0.293482
                                                         0.105770      -0.135909

                          1       2    3s                3.630668       0.121152
                                                         3.114659       0.282943
                                                         1.999981      -0.222703
                                                         0.885340      -0.152333
                                                         0.330796       0.059018
                                                         0.105770       0.127004

                          1       3    4s                3.630668      -0.844689
                                                         3.114659       0.385245
                                                         1.999981       0.302028
                                                         0.885340       0.710510
                                                         0.330796      -0.143042
                                                         0.105770       0.052286

                          1       4    5s                3.630668       0.158215
                                                         3.114659      -0.021237
                                                         1.999981       0.295915
                                                         0.885340       0.147596
                                                         0.330796       0.178153
                                                         0.105770      -0.001801

                          1       5    3px               3.630668       3.040485
                                                         3.114659      -1.243918
                                                         1.999981      -1.446991
                                                         0.885340      -0.752261
                                                         0.330796      -0.038235
                                                         0.105770      -0.012986
                          1       5    3py               3.630668       3.040485
                                                         3.114659      -1.243918
                                                         1.999981      -1.446991
                                                         0.885340      -0.752261
                                                         0.330796      -0.038235
                                                         0.105770      -0.012986
                          1       5    3pz               3.630668       3.040485
                                                         3.114659      -1.243918
                                                         1.999981      -1.446991
                                                         0.885340      -0.752261
                                                         0.330796      -0.038235
                                                         0.105770      -0.012986

                          1       6    4px               3.630668      -0.682003
                                                         3.114659       0.534307
                                                         1.999981      -0.228673
                                                         0.885340      -0.386548
                                                         0.330796       0.185127
                                                         0.105770       0.061336
                          1       6    4py               3.630668      -0.682003
                                                         3.114659       0.534307
                                                         1.999981      -0.228673
                                                         0.885340      -0.386548
                                                         0.330796       0.185127
                                                         0.105770       0.061336
                          1       6    4pz               3.630668      -0.682003
                                                         3.114659       0.534307
                                                         1.999981      -0.228673
                                                         0.885340      -0.386548
                                                         0.330796       0.185127
                                                         0.105770       0.061336

                          1       7    5px               3.630668       2.991696
                                                         3.114659      -1.856536
                                                         1.999981      -0.041638
                                                         0.885340       0.415739
                                                         0.330796      -0.550872
                                                         0.105770       0.117200
                          1       7    5py               3.630668       2.991696
                                                         3.114659      -1.856536
                                                         1.999981      -0.041638
                                                         0.885340       0.415739
                                                         0.330796      -0.550872
                                                         0.105770       0.117200
                          1       7    5pz               3.630668       2.991696
                                                         3.114659      -1.856536
                                                         1.999981      -0.041638
                                                         0.885340       0.415739
                                                         0.330796      -0.550872
                                                         0.105770       0.117200

                          1       8    4dx2              3.630668      -4.431593
                                                         3.114659       2.994590
                                                         1.999981       1.001089
                                                         0.885340       0.609842
                                                         0.330796       0.095979
                                                         0.105770       0.006573
                          1       8    4dxy              3.630668      -7.675744
                                                         3.114659       5.186782
                                                         1.999981       1.733937
                                                         0.885340       1.056277
                                                         0.330796       0.166241
                                                         0.105770       0.011385
                          1       8    4dxz              3.630668      -7.675744
                                                         3.114659       5.186782
                                                         1.999981       1.733937
                                                         0.885340       1.056277
                                                         0.330796       0.166241
                                                         0.105770       0.011385
                          1       8    4dy2              3.630668      -4.431593
                                                         3.114659       2.994590
                                                         1.999981       1.001089
                                                         0.885340       0.609842
                                                         0.330796       0.095979
                                                         0.105770       0.006573
                          1       8    4dyz              3.630668      -7.675744
                                                         3.114659       5.186782
                                                         1.999981       1.733937
                                                         0.885340       1.056277
                                                         0.330796       0.166241
                                                         0.105770       0.011385
                          1       8    4dz2              3.630668      -4.431593
                                                         3.114659       2.994590
                                                         1.999981       1.001089
                                                         0.885340       0.609842
                                                         0.330796       0.095979
                                                         0.105770       0.006573

                          1       9    5dx2              3.630668       5.386940
                                                         3.114659      -6.252972
                                                         1.999981       1.665659
                                                         0.885340      -0.233657
                                                         0.330796       0.037246
                                                         0.105770       0.029979
                          1       9    5dxy              3.630668       9.330454
                                                         3.114659     -10.830464
                                                         1.999981       2.885005
                                                         0.885340      -0.404706
                                                         0.330796       0.064512
                                                         0.105770       0.051925
                          1       9    5dxz              3.630668       9.330454
                                                         3.114659     -10.830464
                                                         1.999981       2.885005
                                                         0.885340      -0.404706
                                                         0.330796       0.064512
                                                         0.105770       0.051925
                          1       9    5dy2              3.630668       5.386940
                                                         3.114659      -6.252972
                                                         1.999981       1.665659
                                                         0.885340      -0.233657
                                                         0.330796       0.037246
                                                         0.105770       0.029979
                          1       9    5dyz              3.630668       9.330454
                                                         3.114659     -10.830464
                                                         1.999981       2.885005
                                                         0.885340      -0.404706
                                                         0.330796       0.064512
                                                         0.105770       0.051925
                          1       9    5dz2              3.630668       5.386940
                                                         3.114659      -6.252972
                                                         1.999981       1.665659
                                                         0.885340      -0.233657
                                                         0.330796       0.037246
                                                         0.105770       0.029979

                          1      10    6dx2              3.630668       3.739160
                                                         3.114659      -5.999130
                                                         1.999981       3.061528
                                                         0.885340       1.138316
                                                         0.330796      -0.143027
                                                         0.105770      -0.009138
                          1      10    6dxy              3.630668       6.476416
                                                         3.114659     -10.390798
                                                         1.999981       5.302723
                                                         0.885340       1.971621
                                                         0.330796      -0.247730
                                                         0.105770      -0.015827
                          1      10    6dxz              3.630668       6.476416
                                                         3.114659     -10.390798
                                                         1.999981       5.302723
                                                         0.885340       1.971621
                                                         0.330796      -0.247730
                                                         0.105770      -0.015827
                          1      10    6dy2              3.630668       3.739160
                                                         3.114659      -5.999130
                                                         1.999981       3.061528
                                                         0.885340       1.138316
                                                         0.330796      -0.143027
                                                         0.105770      -0.009138
                          1      10    6dyz              3.630668       6.476416
                                                         3.114659     -10.390798
                                                         1.999981       5.302723
                                                         0.885340       1.971621
                                                         0.330796      -0.247730
                                                         0.105770      -0.015827
                          1      10    6dz2              3.630668       3.739160
                                                         3.114659      -5.999130
                                                         1.999981       3.061528
                                                         0.885340       1.138316
                                                         0.330796      -0.143027
                                                         0.105770      -0.009138

                          1      11    5fx3              3.630668       4.675468
                                                         3.114659      -5.283430
                                                         1.999981       1.060779
                                                         0.885340      -0.426082
                                                         0.330796      -0.076594
                                                         0.105770      -0.002294
                          1      11    5fx2y             3.630668      10.454665
                                                         3.114659     -11.814108
                                                         1.999981       2.371973
                                                         0.885340      -0.952748
                                                         0.330796      -0.171270
                                                         0.105770      -0.005130
                          1      11    5fx2z             3.630668      10.454665
                                                         3.114659     -11.814108
                                                         1.999981       2.371973
                                                         0.885340      -0.952748
                                                         0.330796      -0.171270
                                                         0.105770      -0.005130
                          1      11    5fxy2             3.630668      10.454665
                                                         3.114659     -11.814108
                                                         1.999981       2.371973
                                                         0.885340      -0.952748
                                                         0.330796      -0.171270
                                                         0.105770      -0.005130
                          1      11    5fxyz             3.630668      18.108011
                                                         3.114659     -20.462636
                                                         1.999981       4.108378
                                                         0.885340      -1.650208
                                                         0.330796      -0.296649
                                                         0.105770      -0.008885
                          1      11    5fxz2             3.630668      10.454665
                                                         3.114659     -11.814108
                                                         1.999981       2.371973
                                                         0.885340      -0.952748
                                                         0.330796      -0.171270
                                                         0.105770      -0.005130
                          1      11    5fy3              3.630668       4.675468
                                                         3.114659      -5.283430
                                                         1.999981       1.060779
                                                         0.885340      -0.426082
                                                         0.330796      -0.076594
                                                         0.105770      -0.002294
                          1      11    5fy2z             3.630668      10.454665
                                                         3.114659     -11.814108
                                                         1.999981       2.371973
                                                         0.885340      -0.952748
                                                         0.330796      -0.171270
                                                         0.105770      -0.005130
                          1      11    5fyz2             3.630668      10.454665
                                                         3.114659     -11.814108
                                                         1.999981       2.371973
                                                         0.885340      -0.952748
                                                         0.330796      -0.171270
                                                         0.105770      -0.005130
                          1      11    5fz3              3.630668       4.675468
                                                         3.114659      -5.283430
                                                         1.999981       1.060779
                                                         0.885340      -0.426082
                                                         0.330796      -0.076594
                                                         0.105770      -0.002294

       Atomic covalent radius [Angstrom]:                                  1.300

       Atomic van der Waals radius [Angstrom]:                             1.750

     GTH Potential information for                                   GTH-PBE-q18

       Description:                       Goedecker-Teter-Hutter pseudopotential
                                           Goedecker et al., PRB 54, 1703 (1996)
                                          Hartwigsen et al., PRB 58, 3641 (1998)
                                                      Krack, TCA 114, 145 (2005)

       Gaussian exponent of the core charge distribution:               2.000000
       Electronic configuration (s p d ...):                           3   6   9

       Parameters of the local part of the GTH pseudopotential:

                          rloc        C1          C2          C3          C4
                        0.500000    8.814323   -0.292509

       Parameters of the non-local part of the GTH pseudopotential:

                   l      r(l)      h(i,j,l)

                   0    0.298002   -5.968385   24.212900  -13.789679
                                   24.212900  -53.687634   35.604799
                                  -13.789679   35.604799  -28.260433
                   1    0.360172   -6.668659    7.170659    0.766904
                                    7.170659   -7.207661   -1.814825
                                    0.766904   -1.814825    1.289806
                   2    0.340532   -8.589905    9.410122
                                    9.410122  -10.670075


 MOLECULE KIND INFORMATION


 All atoms are their own molecule, skipping detailed information


 TOTAL NUMBERS AND MAXIMUM NUMBERS

  Total number of            - Atomic kinds:                                   2
                             - Atoms:                                        256
                             - Shell sets:                                   256
                             - Shells:                                      2816
                             - Primitive Cartesian functions:               1536
                             - Cartesian basis functions:                  10496
                             - Spherical basis functions:                   8960

  Maximum angular momentum of- Orbital basis functions:                        3
                             - Local part of the GTH pseudopotential:          2
                             - Non-local part of the GTH pseudopotential:      5


 MODULE QUICKSTEP: ATOMIC COORDINATES IN ANGSTROM

   Atom Kind Element         X             Y             Z       Z(eff)     Mass
      1    1 Ni   28      0.000000      0.000000      0.000000  18.0000  58.6934
      2    2 Pt   78      1.925000      1.925000      0.000000  18.0000 195.0840
      3    2 Pt   78      1.925000      0.000000      1.925000  18.0000 195.0840
      4    2 Pt   78      0.000000      1.925000      1.925000  18.0000 195.0840
      5    1 Ni   28      0.000000      0.000000      3.850000  18.0000  58.6934
      6    2 Pt   78      1.925000      1.925000      3.850000  18.0000 195.0840
      7    2 Pt   78      1.925000      0.000000      5.775000  18.0000 195.0840
      8    2 Pt   78      0.000000      1.925000      5.775000  18.0000 195.0840
      9    1 Ni   28      0.000000      0.000000      7.700000  18.0000  58.6934
     10    2 Pt   78      1.925000      1.925000      7.700000  18.0000 195.0840
     11    2 Pt   78      1.925000      0.000000      9.625000  18.0000 195.0840
     12    2 Pt   78      0.000000      1.925000      9.625000  18.0000 195.0840
     13    1 Ni   28      0.000000      0.000000     11.550000  18.0000  58.6934
     14    2 Pt   78      1.925000      1.925000     11.550000  18.0000 195.0840
     15    2 Pt   78      1.925000      0.000000     13.475000  18.0000 195.0840
     16    2 Pt   78      0.000000      1.925000     13.475000  18.0000 195.0840
     17    1 Ni   28      0.000000      3.850000      0.000000  18.0000  58.6934
     18    2 Pt   78      1.925000      5.775000      0.000000  18.0000 195.0840
     19    2 Pt   78      1.925000      3.850000      1.925000  18.0000 195.0840
     20    2 Pt   78      0.000000      5.775000      1.925000  18.0000 195.0840
     21    1 Ni   28      0.000000      3.850000      3.850000  18.0000  58.6934
     22    2 Pt   78      1.925000      5.775000      3.850000  18.0000 195.0840
     23    2 Pt   78      1.925000      3.850000      5.775000  18.0000 195.0840
     24    2 Pt   78      0.000000      5.775000      5.775000  18.0000 195.0840
     25    1 Ni   28      0.000000      3.850000      7.700000  18.0000  58.6934
     26    2 Pt   78      1.925000      5.775000      7.700000  18.0000 195.0840
     27    2 Pt   78      1.925000      3.850000      9.625000  18.0000 195.0840
     28    2 Pt   78      0.000000      5.775000      9.625000  18.0000 195.0840
     29    1 Ni   28      0.000000      3.850000     11.550000  18.0000  58.6934
     30    2 Pt   78      1.925000      5.775000     11.550000  18.0000 195.0840
     31    2 Pt   78      1.925000      3.850000     13.475000  18.0000 195.0840
     32    2 Pt   78      0.000000      5.775000     13.475000  18.0000 195.0840
     33    1 Ni   28      0.000000      7.700000      0.000000  18.0000  58.6934
     34    2 Pt   78      1.925000      9.625000      0.000000  18.0000 195.0840
     35    2 Pt   78      1.925000      7.700000      1.925000  18.0000 195.0840
     36    2 Pt   78      0.000000      9.625000      1.925000  18.0000 195.0840
     37    1 Ni   28      0.000000      7.700000      3.850000  18.0000  58.6934
     38    2 Pt   78      1.925000      9.625000      3.850000  18.0000 195.0840
     39    2 Pt   78      1.925000      7.700000      5.775000  18.0000 195.0840
     40    2 Pt   78      0.000000      9.625000      5.775000  18.0000 195.0840
     41    1 Ni   28      0.000000      7.700000      7.700000  18.0000  58.6934
     42    2 Pt   78      1.925000      9.625000      7.700000  18.0000 195.0840
     43    2 Pt   78      1.925000      7.700000      9.625000  18.0000 195.0840
     44    2 Pt   78      0.000000      9.625000      9.625000  18.0000 195.0840
     45    1 Ni   28      0.000000      7.700000     11.550000  18.0000  58.6934
     46    2 Pt   78      1.925000      9.625000     11.550000  18.0000 195.0840
     47    2 Pt   78      1.925000      7.700000     13.475000  18.0000 195.0840
     48    2 Pt   78      0.000000      9.625000     13.475000  18.0000 195.0840
     49    1 Ni   28      0.000000     11.550000      0.000000  18.0000  58.6934
     50    2 Pt   78      1.925000     13.475000      0.000000  18.0000 195.0840
     51    2 Pt   78      1.925000     11.550000      1.925000  18.0000 195.0840
     52    2 Pt   78      0.000000     13.475000      1.925000  18.0000 195.0840
     53    1 Ni   28      0.000000     11.550000      3.850000  18.0000  58.6934
     54    2 Pt   78      1.925000     13.475000      3.850000  18.0000 195.0840
     55    2 Pt   78      1.925000     11.550000      5.775000  18.0000 195.0840
     56    2 Pt   78      0.000000     13.475000      5.775000  18.0000 195.0840
     57    1 Ni   28      0.000000     11.550000      7.700000  18.0000  58.6934
     58    2 Pt   78      1.925000     13.475000      7.700000  18.0000 195.0840
     59    2 Pt   78      1.925000     11.550000      9.625000  18.0000 195.0840
     60    2 Pt   78      0.000000     13.475000      9.625000  18.0000 195.0840
     61    1 Ni   28      0.000000     11.550000     11.550000  18.0000  58.6934
     62    2 Pt   78      1.925000     13.475000     11.550000  18.0000 195.0840
     63    2 Pt   78      1.925000     11.550000     13.475000  18.0000 195.0840
     64    2 Pt   78      0.000000     13.475000     13.475000  18.0000 195.0840
     65    1 Ni   28      3.850000      0.000000      0.000000  18.0000  58.6934
     66    2 Pt   78      5.775000      1.925000      0.000000  18.0000 195.0840
     67    2 Pt   78      5.775000      0.000000      1.925000  18.0000 195.0840
     68    2 Pt   78      3.850000      1.925000      1.925000  18.0000 195.0840
     69    1 Ni   28      3.850000      0.000000      3.850000  18.0000  58.6934
     70    2 Pt   78      5.775000      1.925000      3.850000  18.0000 195.0840
     71    2 Pt   78      5.775000      0.000000      5.775000  18.0000 195.0840
     72    2 Pt   78      3.850000      1.925000      5.775000  18.0000 195.0840
     73    1 Ni   28      3.850000      0.000000      7.700000  18.0000  58.6934
     74    2 Pt   78      5.775000      1.925000      7.700000  18.0000 195.0840
     75    2 Pt   78      5.775000      0.000000      9.625000  18.0000 195.0840
     76    2 Pt   78      3.850000      1.925000      9.625000  18.0000 195.0840
     77    1 Ni   28      3.850000      0.000000     11.550000  18.0000  58.6934
     78    2 Pt   78      5.775000      1.925000     11.550000  18.0000 195.0840
     79    2 Pt   78      5.775000      0.000000     13.475000  18.0000 195.0840
     80    2 Pt   78      3.850000      1.925000     13.475000  18.0000 195.0840
     81    1 Ni   28      3.850000      3.850000      0.000000  18.0000  58.6934
     82    2 Pt   78      5.775000      5.775000      0.000000  18.0000 195.0840
     83    2 Pt   78      5.775000      3.850000      1.925000  18.0000 195.0840
     84    2 Pt   78      3.850000      5.775000      1.925000  18.0000 195.0840
     85    1 Ni   28      3.850000      3.850000      3.850000  18.0000  58.6934
     86    2 Pt   78      5.775000      5.775000      3.850000  18.0000 195.0840
     87    2 Pt   78      5.775000      3.850000      5.775000  18.0000 195.0840
     88    2 Pt   78      3.850000      5.775000      5.775000  18.0000 195.0840
     89    1 Ni   28      3.850000      3.850000      7.700000  18.0000  58.6934
     90    2 Pt   78      5.775000      5.775000      7.700000  18.0000 195.0840
     91    2 Pt   78      5.775000      3.850000      9.625000  18.0000 195.0840
     92    2 Pt   78      3.850000      5.775000      9.625000  18.0000 195.0840
     93    1 Ni   28      3.850000      3.850000     11.550000  18.0000  58.6934
     94    2 Pt   78      5.775000      5.775000     11.550000  18.0000 195.0840
     95    2 Pt   78      5.775000      3.850000     13.475000  18.0000 195.0840
     96    2 Pt   78      3.850000      5.775000     13.475000  18.0000 195.0840
     97    1 Ni   28      3.850000      7.700000      0.000000  18.0000  58.6934
     98    2 Pt   78      5.775000      9.625000      0.000000  18.0000 195.0840
     99    2 Pt   78      5.775000      7.700000      1.925000  18.0000 195.0840
    100    2 Pt   78      3.850000      9.625000      1.925000  18.0000 195.0840
    101    1 Ni   28      3.850000      7.700000      3.850000  18.0000  58.6934
    102    2 Pt   78      5.775000      9.625000      3.850000  18.0000 195.0840
    103    2 Pt   78      5.775000      7.700000      5.775000  18.0000 195.0840
    104    2 Pt   78      3.850000      9.625000      5.775000  18.0000 195.0840
    105    1 Ni   28      3.850000      7.700000      7.700000  18.0000  58.6934
    106    2 Pt   78      5.775000      9.625000      7.700000  18.0000 195.0840
    107    2 Pt   78      5.775000      7.700000      9.625000  18.0000 195.0840
    108    2 Pt   78      3.850000      9.625000      9.625000  18.0000 195.0840
    109    1 Ni   28      3.850000      7.700000     11.550000  18.0000  58.6934
    110    2 Pt   78      5.775000      9.625000     11.550000  18.0000 195.0840
    111    2 Pt   78      5.775000      7.700000     13.475000  18.0000 195.0840
    112    2 Pt   78      3.850000      9.625000     13.475000  18.0000 195.0840
    113    1 Ni   28      3.850000     11.550000      0.000000  18.0000  58.6934
    114    2 Pt   78      5.775000     13.475000      0.000000  18.0000 195.0840
    115    2 Pt   78      5.775000     11.550000      1.925000  18.0000 195.0840
    116    2 Pt   78      3.850000     13.475000      1.925000  18.0000 195.0840
    117    1 Ni   28      3.850000     11.550000      3.850000  18.0000  58.6934
    118    2 Pt   78      5.775000     13.475000      3.850000  18.0000 195.0840
    119    2 Pt   78      5.775000     11.550000      5.775000  18.0000 195.0840
    120    2 Pt   78      3.850000     13.475000      5.775000  18.0000 195.0840
    121    1 Ni   28      3.850000     11.550000      7.700000  18.0000  58.6934
    122    2 Pt   78      5.775000     13.475000      7.700000  18.0000 195.0840
    123    2 Pt   78      5.775000     11.550000      9.625000  18.0000 195.0840
    124    2 Pt   78      3.850000     13.475000      9.625000  18.0000 195.0840
    125    1 Ni   28      3.850000     11.550000     11.550000  18.0000  58.6934
    126    2 Pt   78      5.775000     13.475000     11.550000  18.0000 195.0840
    127    2 Pt   78      5.775000     11.550000     13.475000  18.0000 195.0840
    128    2 Pt   78      3.850000     13.475000     13.475000  18.0000 195.0840
    129    1 Ni   28      7.700000      0.000000      0.000000  18.0000  58.6934
    130    2 Pt   78      9.625000      1.925000      0.000000  18.0000 195.0840
    131    2 Pt   78      9.625000      0.000000      1.925000  18.0000 195.0840
    132    2 Pt   78      7.700000      1.925000      1.925000  18.0000 195.0840
    133    1 Ni   28      7.700000      0.000000      3.850000  18.0000  58.6934
    134    2 Pt   78      9.625000      1.925000      3.850000  18.0000 195.0840
    135    2 Pt   78      9.625000      0.000000      5.775000  18.0000 195.0840
    136    2 Pt   78      7.700000      1.925000      5.775000  18.0000 195.0840
    137    1 Ni   28      7.700000      0.000000      7.700000  18.0000  58.6934
    138    2 Pt   78      9.625000      1.925000      7.700000  18.0000 195.0840
    139    2 Pt   78      9.625000      0.000000      9.625000  18.0000 195.0840
    140    2 Pt   78      7.700000      1.925000      9.625000  18.0000 195.0840
    141    1 Ni   28      7.700000      0.000000     11.550000  18.0000  58.6934
    142    2 Pt   78      9.625000      1.925000     11.550000  18.0000 195.0840
    143    2 Pt   78      9.625000      0.000000     13.475000  18.0000 195.0840
    144    2 Pt   78      7.700000      1.925000     13.475000  18.0000 195.0840
    145    1 Ni   28      7.700000      3.850000      0.000000  18.0000  58.6934
    146    2 Pt   78      9.625000      5.775000      0.000000  18.0000 195.0840
    147    2 Pt   78      9.625000      3.850000      1.925000  18.0000 195.0840
    148    2 Pt   78      7.700000      5.775000      1.925000  18.0000 195.0840
    149    1 Ni   28      7.700000      3.850000      3.850000  18.0000  58.6934
    150    2 Pt   78      9.625000      5.775000      3.850000  18.0000 195.0840
    151    2 Pt   78      9.625000      3.850000      5.775000  18.0000 195.0840
    152    2 Pt   78      7.700000      5.775000      5.775000  18.0000 195.0840
    153    1 Ni   28      7.700000      3.850000      7.700000  18.0000  58.6934
    154    2 Pt   78      9.625000      5.775000      7.700000  18.0000 195.0840
    155    2 Pt   78      9.625000      3.850000      9.625000  18.0000 195.0840
    156    2 Pt   78      7.700000      5.775000      9.625000  18.0000 195.0840
    157    1 Ni   28      7.700000      3.850000     11.550000  18.0000  58.6934
    158    2 Pt   78      9.625000      5.775000     11.550000  18.0000 195.0840
    159    2 Pt   78      9.625000      3.850000     13.475000  18.0000 195.0840
    160    2 Pt   78      7.700000      5.775000     13.475000  18.0000 195.0840
    161    1 Ni   28      7.700000      7.700000      0.000000  18.0000  58.6934
    162    2 Pt   78      9.625000      9.625000      0.000000  18.0000 195.0840
    163    2 Pt   78      9.625000      7.700000      1.925000  18.0000 195.0840
    164    2 Pt   78      7.700000      9.625000      1.925000  18.0000 195.0840
    165    1 Ni   28      7.700000      7.700000      3.850000  18.0000  58.6934
    166    2 Pt   78      9.625000      9.625000      3.850000  18.0000 195.0840
    167    2 Pt   78      9.625000      7.700000      5.775000  18.0000 195.0840
    168    2 Pt   78      7.700000      9.625000      5.775000  18.0000 195.0840
    169    1 Ni   28      7.700000      7.700000      7.700000  18.0000  58.6934
    170    2 Pt   78      9.625000      9.625000      7.700000  18.0000 195.0840
    171    2 Pt   78      9.625000      7.700000      9.625000  18.0000 195.0840
    172    2 Pt   78      7.700000      9.625000      9.625000  18.0000 195.0840
    173    1 Ni   28      7.700000      7.700000     11.550000  18.0000  58.6934
    174    2 Pt   78      9.625000      9.625000     11.550000  18.0000 195.0840
    175    2 Pt   78      9.625000      7.700000     13.475000  18.0000 195.0840
    176    2 Pt   78      7.700000      9.625000     13.475000  18.0000 195.0840
    177    1 Ni   28      7.700000     11.550000      0.000000  18.0000  58.6934
    178    2 Pt   78      9.625000     13.475000      0.000000  18.0000 195.0840
    179    2 Pt   78      9.625000     11.550000      1.925000  18.0000 195.0840
    180    2 Pt   78      7.700000     13.475000      1.925000  18.0000 195.0840
    181    1 Ni   28      7.700000     11.550000      3.850000  18.0000  58.6934
    182    2 Pt   78      9.625000     13.475000      3.850000  18.0000 195.0840
    183    2 Pt   78      9.625000     11.550000      5.775000  18.0000 195.0840
    184    2 Pt   78      7.700000     13.475000      5.775000  18.0000 195.0840
    185    1 Ni   28      7.700000     11.550000      7.700000  18.0000  58.6934
    186    2 Pt   78      9.625000     13.475000      7.700000  18.0000 195.0840
    187    2 Pt   78      9.625000     11.550000      9.625000  18.0000 195.0840
    188    2 Pt   78      7.700000     13.475000      9.625000  18.0000 195.0840
    189    1 Ni   28      7.700000     11.550000     11.550000  18.0000  58.6934
    190    2 Pt   78      9.625000     13.475000     11.550000  18.0000 195.0840
    191    2 Pt   78      9.625000     11.550000     13.475000  18.0000 195.0840
    192    2 Pt   78      7.700000     13.475000     13.475000  18.0000 195.0840
    193    1 Ni   28     11.550000      0.000000      0.000000  18.0000  58.6934
    194    2 Pt   78     13.475000      1.925000      0.000000  18.0000 195.0840
    195    2 Pt   78     13.475000      0.000000      1.925000  18.0000 195.0840
    196    2 Pt   78     11.550000      1.925000      1.925000  18.0000 195.0840
    197    1 Ni   28     11.550000      0.000000      3.850000  18.0000  58.6934
    198    2 Pt   78     13.475000      1.925000      3.850000  18.0000 195.0840
    199    2 Pt   78     13.475000      0.000000      5.775000  18.0000 195.0840
    200    2 Pt   78     11.550000      1.925000      5.775000  18.0000 195.0840
    201    1 Ni   28     11.550000      0.000000      7.700000  18.0000  58.6934
    202    2 Pt   78     13.475000      1.925000      7.700000  18.0000 195.0840
    203    2 Pt   78     13.475000      0.000000      9.625000  18.0000 195.0840
    204    2 Pt   78     11.550000      1.925000      9.625000  18.0000 195.0840
    205    1 Ni   28     11.550000      0.000000     11.550000  18.0000  58.6934
    206    2 Pt   78     13.475000      1.925000     11.550000  18.0000 195.0840
    207    2 Pt   78     13.475000      0.000000     13.475000  18.0000 195.0840
    208    2 Pt   78     11.550000      1.925000     13.475000  18.0000 195.0840
    209    1 Ni   28     11.550000      3.850000      0.000000  18.0000  58.6934
    210    2 Pt   78     13.475000      5.775000      0.000000  18.0000 195.0840
    211    2 Pt   78     13.475000      3.850000      1.925000  18.0000 195.0840
    212    2 Pt   78     11.550000      5.775000      1.925000  18.0000 195.0840
    213    1 Ni   28     11.550000      3.850000      3.850000  18.0000  58.6934
    214    2 Pt   78     13.475000      5.775000      3.850000  18.0000 195.0840
    215    2 Pt   78     13.475000      3.850000      5.775000  18.0000 195.0840
    216    2 Pt   78     11.550000      5.775000      5.775000  18.0000 195.0840
    217    1 Ni   28     11.550000      3.850000      7.700000  18.0000  58.6934
    218    2 Pt   78     13.475000      5.775000      7.700000  18.0000 195.0840
    219    2 Pt   78     13.475000      3.850000      9.625000  18.0000 195.0840
    220    2 Pt   78     11.550000      5.775000      9.625000  18.0000 195.0840
    221    1 Ni   28     11.550000      3.850000     11.550000  18.0000  58.6934
    222    2 Pt   78     13.475000      5.775000     11.550000  18.0000 195.0840
    223    2 Pt   78     13.475000      3.850000     13.475000  18.0000 195.0840
    224    2 Pt   78     11.550000      5.775000     13.475000  18.0000 195.0840
    225    1 Ni   28     11.550000      7.700000      0.000000  18.0000  58.6934
    226    2 Pt   78     13.475000      9.625000      0.000000  18.0000 195.0840
    227    2 Pt   78     13.475000      7.700000      1.925000  18.0000 195.0840
    228    2 Pt   78     11.550000      9.625000      1.925000  18.0000 195.0840
[...]
    206       Pt     2      18.000    9.048   8.843            0.204      0.109
    207       Pt     2      18.000    9.047   8.843            0.205      0.110
    208       Pt     2      18.000    9.047   8.842            0.205      0.111
    209       Ni     1      18.000    9.514   8.812            0.701     -0.326
    210       Pt     2      18.000    9.046   8.841            0.205      0.112
    211       Pt     2      18.000    9.046   8.841            0.205      0.113
    212       Pt     2      18.000    9.046   8.840            0.205      0.114
    213       Ni     1      18.000    9.513   8.810            0.703     -0.323
    214       Pt     2      18.000    9.046   8.840            0.205      0.114
    215       Pt     2      18.000    9.046   8.841            0.205      0.113
    216       Pt     2      18.000    9.046   8.840            0.205      0.114
    217       Ni     1      18.000    9.514   8.813            0.701     -0.327
    218       Pt     2      18.000    9.047   8.842            0.205      0.112
    219       Pt     2      18.000    9.047   8.843            0.205      0.110
    220       Pt     2      18.000    9.047   8.842            0.205      0.111
    221       Ni     1      18.000    9.514   8.816            0.699     -0.330
    222       Pt     2      18.000    9.047   8.843            0.205      0.110
    223       Pt     2      18.000    9.047   8.842            0.205      0.111
    224       Pt     2      18.000    9.047   8.842            0.205      0.111
    225       Ni     1      18.000    9.513   8.812            0.702     -0.325
    226       Pt     2      18.000    9.046   8.841            0.205      0.112
    227       Pt     2      18.000    9.046   8.840            0.205      0.114
    228       Pt     2      18.000    9.046   8.840            0.205      0.114
    229       Ni     1      18.000    9.513   8.809            0.704     -0.322
    230       Pt     2      18.000    9.046   8.840            0.205      0.114
    231       Pt     2      18.000    9.046   8.841            0.205      0.113
    232       Pt     2      18.000    9.046   8.841            0.205      0.113
    233       Ni     1      18.000    9.514   8.812            0.701     -0.326
    234       Pt     2      18.000    9.047   8.842            0.205      0.112
    235       Pt     2      18.000    9.047   8.842            0.205      0.111
    236       Pt     2      18.000    9.047   8.842            0.205      0.111
    237       Ni     1      18.000    9.514   8.815            0.699     -0.329
    238       Pt     2      18.000    9.047   8.843            0.205      0.110
    239       Pt     2      18.000    9.047   8.842            0.205      0.111
    240       Pt     2      18.000    9.047   8.842            0.205      0.111
    241       Ni     1      18.000    9.514   8.813            0.701     -0.326
    242       Pt     2      18.000    9.047   8.842            0.205      0.111
    243       Pt     2      18.000    9.046   8.841            0.205      0.113
    244       Pt     2      18.000    9.046   8.841            0.205      0.113
    245       Ni     1      18.000    9.513   8.810            0.703     -0.323
    246       Pt     2      18.000    9.046   8.841            0.205      0.113
    247       Pt     2      18.000    9.046   8.841            0.205      0.113
    248       Pt     2      18.000    9.046   8.841            0.205      0.113
    249       Ni     1      18.000    9.514   8.814            0.700     -0.327
    250       Pt     2      18.000    9.047   8.842            0.205      0.111
    251       Pt     2      18.000    9.047   8.843            0.205      0.110
    252       Pt     2      18.000    9.047   8.843            0.204      0.110
    253       Ni     1      18.000    9.514   8.816            0.698     -0.331
    254       Pt     2      18.000    9.048   8.843            0.204      0.109
    255       Pt     2      18.000    9.047   8.843            0.205      0.110
    256       Pt     2      18.000    9.047   8.843            0.205      0.110

  Total Charge                                                           -0.000
 !-----------------------------------------------------------------------------!

 ENERGY| Total FORCE_EVAL ( QS ) energy [a.u.]:           -33896.583969829203852

 -------------------------------------------------------------------------------
 -                                                                             -
 -                                DBCSR STATISTICS                             -
 -                                                                             -
 -------------------------------------------------------------------------------
 COUNTER                                    TOTAL       BLAS       SMM       ACC
 flops    35 x    35 x   144         301748428800     100.0%      0.0%      0.0%
 flops    35 x    35 x   160        2011656192000     100.0%      0.0%      0.0%
 flops    35 x    35 x   128        6705520640000     100.0%      0.0%      0.0%
 flops inhomo. stacks                           0       0.0%      0.0%      0.0%
 flops total                         9.018925E+12     100.0%      0.0%      0.0%
 flops max/rank                     22.481514E+09     100.0%      0.0%      0.0%
 matmuls inhomo. stacks                         0       0.0%      0.0%      0.0%
 matmuls total                           27369472     100.0%      0.0%      0.0%
 number of processed stacks                425984     100.0%      0.0%      0.0%
 average stack size                                    64.2       0.0       0.0
 marketing flops                    10.428901E+12
 -------------------------------------------------------------------------------
 # multiplications                             26
 max memory usage/rank             332.558336E+06
 # max total images/rank                        2
 # max 3D layers                                1
 # MPI messages exchanged                  812032
 MPI messages size (bytes):
  total size                       368.978821E+09
  min size                         286.720000E+03
  max size                         716.800000E+03
  average size                     454.389500E+03
 MPI breakdown and total messages size (bytes):
             size <=      128                   0                        0
       128 < size <=     8192                   0                        0
      8192 < size <=    32768                   0                        0
     32768 < size <=   131072                   0                        0
    131072 < size <=  4194304              812032             368978821120
   4194304 < size <= 16777216                   0                        0
  16777216 < size                               0                        0
 -------------------------------------------------------------------------------

 *** WARNING in dbcsr_mm.F:290 :: Using a non-square number of MPI ranks ***
 *** might lead to poor performance. Used ranks: 512 Suggested: 529 1024 ***

 -------------------------------------------------------------------------------
 -                                                                             -
 -                      DBCSR MESSAGE PASSING PERFORMANCE                      -
 -                                                                             -
 -------------------------------------------------------------------------------
 ROUTINE             CALLS      AVE VOLUME [Bytes]
 MP_Bcast                4                     12.
 MP_Allreduce          209                     10.
 MP_Alltoall           740                 971678.
 MP_ISend             3328                 219972.
 MP_IRecv             3328                 217732.
 -------------------------------------------------------------------------------

 -------------------------------------------------------------------------------
 -                                                                             -
 -                                DBM STATISTICS                               -
 -                                                                             -
 -------------------------------------------------------------------------------
    M  x    N  x    K                                          COUNT     PERCENT
 -------------------------------------------------------------------------------

 -------------------------------------------------------------------------------
 -                                                                             -
 -                                GRID STATISTICS                              -
 -                                                                             -
 -------------------------------------------------------------------------------
 LP    KERNEL             BACKEND                              COUNT     PERCENT
 6     collocate ortho    REF                               15393280      46.70%
 6     integrate ortho    REF                               14293760      43.36%
 0     integrate general  REF                                2097152       6.36%
 0     collocate general  REF                                1179648       3.58%
 -------------------------------------------------------------------------------

 MEMORY| Estimated peak process memory [MiB]                                 321

 -------------------------------------------------------------------------------
 ----                             MULTIGRID INFO                            ----
 -------------------------------------------------------------------------------
 count for grid        1:       24020736          cutoff [a.u.]          250.00
 count for grid        2:        8157696          cutoff [a.u.]           83.33
 count for grid        3:        3176064          cutoff [a.u.]           27.78
 count for grid        4:        1151488          cutoff [a.u.]            9.26
 total gridlevel count  :       36505984

 -------------------------------------------------------------------------------
 -                                                                             -
 -                         MESSAGE PASSING PERFORMANCE                         -
 -                                                                             -
 -------------------------------------------------------------------------------

 ROUTINE             CALLS      AVE VOLUME [Bytes]
 MP_Group                4
 MP_Bcast              152                3395746.
 MP_Allreduce          735                   2891.
 MP_Sync               380
 MP_Alltoall           837              391558724.
 MP_SendRecv         28616                   5280.
 MP_ISendRecv        26572                   5280.
 MP_Wait             29920
 MP_comm_split          26
 MP_ISend             7214                  78585.
 MP_IRecv             7526                  75408.
 MP_Recv               268                2293760.
 MP_Write_All            2                  39816.
 -------------------------------------------------------------------------------


 -------------------------------------------------------------------------------
 -                                                                             -
 -                           R E F E R E N C E S                               -
 -                                                                             -
 -------------------------------------------------------------------------------
 
 CP2K version 2023.1 (Development Version), the CP2K developers group (2023).
 CP2K is freely available from https://www.cp2k.org/ .

 Kuehne,Thomas D.; Iannuzzi,Marcella; Del Ben,Mauro;
 Rybkin,Vladimir V.; Seewald,Patrick; Stein,Frederick; Laino,Teodoro;
 Khaliullin,Rustam Z.; Schuett,Ole; Schiffmann,Florian; Golze,Dorothea;
 Wilhelm,Jan; Chulkov,Sergey; Bani-Hashemian,Mohammad Hossein;
 Weber,Valery; Borstnik,Urban; Taillefumier,Mathieu;
 Jakobovits,Alice Shoshana; Lazzaro,Alfio; Pabst,Hans; Mueller,Tiziano;
 Schade,Robert; Guidon,Manuel; Andermatt,Samuel; Holmberg,Nico;
 Schenter,Gregory K.; Hehn,Anna; Bussy,Augustin; Belleflamme,Fabian;
 Tabacchi,Gloria; Gloess,Andreas; Lass,Michael; Bethune,Iain;
 Mundy,Christopher J.; Plessl,Christian; Watkins,Matt;
 VandeVondele,Joost; Krack,Matthias; Hutter,Juerg. 
 The Journal of Chemical Physics, 152 (19), (2020). 
 CP2K: An electronic structure and molecular dynamics software package -
 Quickstep: Efficient and accurate electronic structure calculations.
 https://doi.org/10.1063/5.0007045

 Goerigk, Lars; Hansen, Andreas; Bauer, Christoph; Ehrlich, Stephan;
 Najibi, Asim; Grimme, Stefan. , 19 (48), (2017). 
 A look at the density functional theory zoo with the advanced GMTKN55 database
 for general main group thermochemistry, kinetics and noncovalent interactions.
 https://doi.org/10.1039/C7CP04913G

 Schuett, Ole; Messmer, Peter; Hutter, Juerg; VandeVondele, Joost. 
 Electronic Structure Calculations on Graphics Processing Units, John
 Wiley & Sons, Ltd, 173-190 (2016). 
 GPU-Accelerated Sparse Matrix-Matrix Multiplication for
 Linear Scaling Density Functional Theory.
 https://doi.org/10.1002/9781118670712.ch8

 Borstnik, U; VandeVondele, J; Weber, V; Hutter, J. 
 PARALLEL COMPUTING, 40 (5-6), 47-58 (2014). 
 Sparse matrix multiplication: The distributed block-compressed sparse
 row library.
 https://doi.org/10.1016/j.parco.2014.03.012

 Hutter, J; Iannuzzi, M; Schiffmann, F; VandeVondele, J. 
 WIREs Comput Mol Sci., 4 (1), 15-25 (2014). 
 CP2K: atomistic simulations of condensed matter systems.
 https://doi.org/10.1002/wcms.1159

 Marek, A; Blum, V; Johanni, R; Havu, V; Lang, B; Auckenthaler, T;
 Heinecke, A; Bungartz, H; Lederer, H. 
 Journal of Physics: Condensed Matter, 26 (21), (2014). 
 The ELPA library: scalable parallel eigenvalue solutions for
 electronic structure
 theory and computational science.
 https://doi.org/10.1088/0953-8984/26/21/213201

 Grimme, S; Ehrlich, S; Goerigk, L. 
 JOURNAL OF COMPUTATIONAL CHEMISTRY, 32, 1456 (2011). 
 Effect of the damping function in dispersion corrected density functional theory.
 https://doi.org/10.1002/jcc.21759

 Grimme, S; Antony, J; Ehrlich, S; Krieg, H. 
 JOURNAL OF CHEMICAL PHYSICS, 132 (15), 154104 (2010). 
 A consistent and accurate ab initio parametrization of density
 functional dispersion correction (DFT-D) for the 94 elements H-Pu.
 https://doi.org/10.1063/1.3382344

 VandeVondele, J; Hutter, J. 
 JOURNAL OF CHEMICAL PHYSICS, 127 (11), 114105 (2007). 
 Gaussian basis sets for accurate calculations on molecular systems in
 gas and condensed phases.
 https://doi.org/10.1063/1.2770708

 Krack, M. 
 THEORETICAL CHEMISTRY ACCOUNTS, 114 (1-3), 145-152 (2005). 
 Pseudopotentials for H to Kr optimized for gradient-corrected
 exchange-correlation functionals.
 https://doi.org/10.1007/s00214-005-0655-y

 VandeVondele, J; Krack, M; Mohamed, F; Parrinello, M; Chassaing, T;
 Hutter, J. COMPUTER PHYSICS COMMUNICATIONS, 167 (2), 103-128 (2005). 
 QUICKSTEP: Fast and accurate density functional calculations using a
 mixed Gaussian and plane waves approach.
 https://doi.org/10.1016/j.cpc.2004.12.014

 Frigo, M; Johnson, SG. 
 PROCEEDINGS OF THE IEEE, 93 (2), 216-231 (2005). 
 The design and implementation of FFTW3.
 https://doi.org/10.1109/JPROC.2004.840301

 Hartwigsen, C; Goedecker, S; Hutter, J. 
 PHYSICAL REVIEW B, 58 (7), 3641-3662 (1998). 
 Relativistic separable dual-space Gaussian pseudopotentials from H to Rn.
 https://doi.org/10.1103/PhysRevB.58.3641

 Lippert, G; Hutter, J; Parrinello, M. 
 MOLECULAR PHYSICS, 92 (3), 477-487 (1997). 
 A hybrid Gaussian and plane wave density functional scheme.
 https://doi.org/10.1080/002689797170220

 Perdew, JP; Burke, K; Ernzerhof, M. 
 PHYSICAL REVIEW LETTERS, 77 (18), 3865-3868 (1996). 
 Generalized gradient approximation made simple.
 https://doi.org/10.1103/PhysRevLett.77.3865

 Goedecker, S; Teter, M; Hutter, J. 
 PHYSICAL REVIEW B, 54 (3), 1703-1710 (1996). 
 Separable dual-space Gaussian pseudopotentials.
 https://doi.org/10.1103/PhysRevB.54.1703


 -------------------------------------------------------------------------------
 -                                                                             -
 -                                T I M I N G                                  -
 -                                                                             -
 -------------------------------------------------------------------------------
 SUBROUTINE                       CALLS  ASD         SELF TIME        TOTAL TIME
                                MAXIMUM       AVERAGE  MAXIMUM  AVERAGE  MAXIMUM
 CP2K                                 1  1.0    0.057    0.070  172.924  172.928
 qs_energies                          1  2.0    0.004    0.008  172.352  172.359
 scf_env_do_scf                       1  3.0    0.001    0.003  138.896  139.297
 scf_env_do_scf_inner_loop           13  4.0    0.008    0.062  138.895  139.297
 qs_scf_new_mos                      13  5.0    0.001    0.004  123.666  123.833
 eigensolver                         26  6.0    0.004    0.006  119.744  119.761
 cp_fm_diag_elpa                     26  7.0    0.000    0.001  107.484  107.564
 cp_fm_redistribute_end              26  8.0   75.304  107.123   75.432  107.137
 cp_fm_diag_elpa_base                26  8.0   31.121  104.969   31.390  105.867
 qs_energies_init_hamiltonians        1  3.0    0.005    0.010   18.769   18.773
 qs_env_update_s_mstruct              1  4.0    0.000    0.000   17.732   18.031
 qs_create_task_list                  1  5.0    0.000    0.000   16.494   16.731
 generate_qs_task_list                1  6.0    0.003    0.004   16.494   16.731
 distribute_tasks                     1  7.0    0.002    0.003   16.491   16.728
 create_local_tasks                   1  8.0    0.002    0.003   16.356   16.495
 mp_alltoall_l11v                     1  9.0   16.354   16.494   16.354   16.494
 init_scf_run                         1  3.0    0.000    0.002   13.117   13.119
 mp_alltoall_d11v                   372  9.2   12.033   12.290   12.033   12.290
 cp_fm_cholesky_restore              78  7.0   12.028   12.194   12.028   12.194
 dbcsr_complete_redistribute         79  8.3    0.113    0.138   11.754   11.926
 copy_dbcsr_to_fm                    27  5.9    0.001    0.002   11.562   11.578
 qs_rho_update_rho_low               14  5.0    0.002    0.004    7.817    7.824
 calculate_rho_elec                  28  6.0    0.004    0.006    7.815    7.822
 qs_ks_update_qs_env                 13  5.0    0.000    0.000    7.627    7.633
 rebuild_ks_matrix                   13  6.0    0.001    0.002    7.547    7.553
 qs_ks_build_kohn_sham_matrix        13  7.0    0.009    0.015    7.546    7.552
 sum_up_and_integrate                13  8.0    0.008    0.013    6.361    6.369
 integrate_v_rspace                  26  9.0    0.001    0.002    6.352    6.359
 grid_collocate_task_list            28  7.0    4.465    4.591    4.465    4.591
 grid_integrate_task_list            26 10.0    4.099    4.206    4.099    4.206
 rs_pw_transfer                     220  9.4    0.004    0.005    3.829    4.159
 -------------------------------------------------------------------------------

 The number of warnings for this run is : 3
 
 -------------------------------------------------------------------------------
  **** **** ******  **  PROGRAM ENDED AT                 2023-07-18 15:33:21.744
 ***** ** ***  *** **   PROGRAM RAN ON                                 nid001327
 **    ****   ******    PROGRAM RAN BY                                    cahart
 ***** **    ** ** **   PROGRAM PROCESS ID                                143559
  **** **  *******  **  PROGRAM STOPPED IN /mnt/lustre/a2fs-work2/work/e05/e05/c
                                           ahart/postdoc/masters/pt3ni/other/fm/
                                           bulk/atoms-256/brute_force/restarts-2
                                           2_scf-1e-2/tz_temp-2000/1E-2
