 DBCSR| CPU Multiplication driver                                           XSMM (U)
 DBCSR| Multrec recursion limit                                              512 (U)
 DBCSR| Multiplication stack size                                           1000 (D)
 DBCSR| Maximum elements for images                                    UNLIMITED (U)
 DBCSR| Multiplicative factor virtual images                                   1 (U)
 DBCSR| Use multiplication densification                                       T (D)
 DBCSR| Multiplication size stacks                                             3 (U)
 DBCSR| Use memory pool for CPU allocation                                     F (U)
 DBCSR| Number of 3D layers                                               SINGLE (U)
 DBCSR| Use MPI memory allocation                                              F (U)
 DBCSR| Use RMA algorithm                                                      F (U)
 DBCSR| Use Communication thread                                               T (U)
 DBCSR| Communication thread load                                             87 (D)
 DBCSR| MPI: My process id                                                     0
 DBCSR| MPI: Number of processes                                             128
 DBCSR| OMP: Current number of threads                                         1
 DBCSR| OMP: Max number of threads                                             1
 DBCSR| Split modifier for TAS multiplication algorithm                  1.0E+00 (U)


  **** **** ******  **  PROGRAM STARTED AT               2023-02-14 16:00:54.568
 ***** ** ***  *** **   PROGRAM STARTED ON                             nid006725
 **    ****   ******    PROGRAM STARTED BY                                cahart
 ***** **    ** ** **   PROGRAM PROCESS ID                                168281
  **** **  *******  **  PROGRAM STARTED IN /mnt/lustre/a2fs-work2/work/e05/e05/c
                                           ahart/postdoc/masters/ni/archer2/slab
                                           /optimise/alpha-beta/scf_1e-4_mos-100
                                           0_temp-2000_spin-0.7-0.5_periodic-xyz
                                           /search/4.0E-01_1.0

 CP2K| version string:                 CP2K version 2023.1 (Development Version)
 CP2K| source code revision number:                                  git:964cd58
 CP2K| cp2kflags: omp libint fftw3 libxc elpa parallel scalapack xsmm plumed2 mk
 CP2K|            l
 CP2K| is freely available from                            https://www.cp2k.org/
 CP2K| Program compiled at                          Mon 13 Feb 17:05:14 GMT 2023
 CP2K| Program compiled on                                                  ln01
 CP2K| Program compiled for                                              ARCHER2
 CP2K| Data directory path    /work/e05/e05/cahart/cp2k/cp2k-2023.1/cp2k-2023.1-
 CP2K| Input file name                                                  cp2k.inp

 GLOBAL| Force Environment number                                              1
 GLOBAL| Basis set file name                                        BASIS_MOLOPT
 GLOBAL| Potential file name                                      GTH_POTENTIALS
 GLOBAL| MM Potential file name                                     MM_POTENTIAL
 GLOBAL| Coordinate file name                                      __STD_INPUT__
 GLOBAL| Method name                                                        CP2K
 GLOBAL| Project name                                                    Ni_bulk
 GLOBAL| Run type                                                         ENERGY
 GLOBAL| FFT library                                                       FFTW3
 GLOBAL| Diagonalization library                                            ELPA
 GLOBAL| DGEMM library                                                      BLAS
 GLOBAL| Minimum number of eigenvectors for ELPA usage                        16
 GLOBAL| Orthonormality check for eigenvectors                          DISABLED
 GLOBAL| Matrix multiplication library                                 ScaLAPACK
 GLOBAL| All-to-all communication in single precision                          F
 GLOBAL| FFTs using library dependent lengths                                  F
 GLOBAL| Grid backend                                                       AUTO
 GLOBAL| Global print level                                               MEDIUM
 GLOBAL| MPI I/O enabled                                                       T
 GLOBAL| Total number of message passing processes                           128
 GLOBAL| Number of threads for this process                                    1
 GLOBAL| This output is from process                                           0
 GLOBAL| Stack size for threads created by OpenMP (OMP_STACKSIZE)        default
 GLOBAL| CPU model name                          AMD EPYC 7742 64-Core Processor
 GLOBAL| CPUID                                                              1002

 MEMORY| system memory details [Kb]
 MEMORY|                        rank 0           min           max       average
 MEMORY| MemTotal            263528088     263528088     263528088     263528088
 MEMORY| MemFree             238823412     238823412     238823412     238823412
 MEMORY| Buffers                 31016         31016         31016         31016
 MEMORY| Cached                 674900        674900        674900        674900
 MEMORY| Slab                  1579944       1579944       1579944       1579944
 MEMORY| SReclaimable           107652        107652        107652        107652
 MEMORY| MemLikelyFree       239636980     239636980     239636980     239636980


 *** Fundamental physical constants (SI units) ***

 *** Literature: B. J. Mohr and B. N. Taylor,
 ***             CODATA recommended values of the fundamental physical
 ***             constants: 2006, Web Version 5.1
 ***             http://physics.nist.gov/constants

 Speed of light in vacuum [m/s]                             2.99792458000000E+08
 Magnetic constant or permeability of vacuum [N/A**2]       1.25663706143592E-06
 Electric constant or permittivity of vacuum [F/m]          8.85418781762039E-12
 Planck constant (h) [J*s]                                  6.62606896000000E-34
 Planck constant (h-bar) [J*s]                              1.05457162825177E-34
 Elementary charge [C]                                      1.60217648700000E-19
 Electron mass [kg]                                         9.10938215000000E-31
 Electron g factor [ ]                                     -2.00231930436220E+00
 Proton mass [kg]                                           1.67262163700000E-27
 Fine-structure constant                                    7.29735253760000E-03
 Rydberg constant [1/m]                                     1.09737315685270E+07
 Avogadro constant [1/mol]                                  6.02214179000000E+23
 Boltzmann constant [J/K]                                   1.38065040000000E-23
 Atomic mass unit [kg]                                      1.66053878200000E-27
 Bohr radius [m]                                            5.29177208590000E-11

 *** Conversion factors ***

 [u] -> [a.u.]                                              1.82288848426455E+03
 [Angstrom] -> [Bohr] = [a.u.]                              1.88972613288564E+00
 [a.u.] = [Bohr] -> [Angstrom]                              5.29177208590000E-01
 [a.u.] -> [s]                                              2.41888432650478E-17
 [a.u.] -> [fs]                                             2.41888432650478E-02
 [a.u.] -> [J]                                              4.35974393937059E-18
 [a.u.] -> [N]                                              8.23872205491840E-08
 [a.u.] -> [K]                                              3.15774647902944E+05
 [a.u.] -> [kJ/mol]                                         2.62549961709828E+03
 [a.u.] -> [kcal/mol]                                       6.27509468713739E+02
 [a.u.] -> [Pa]                                             2.94210107994716E+13
 [a.u.] -> [bar]                                            2.94210107994716E+08
 [a.u.] -> [atm]                                            2.90362800883016E+08
 [a.u.] -> [eV]                                             2.72113838565563E+01
 [a.u.] -> [Hz]                                             6.57968392072181E+15
 [a.u.] -> [1/cm] (wave numbers)                            2.19474631370540E+05
 [a.u./Bohr**2] -> [1/cm]                                   5.14048714338585E+03
 

 CELL_TOP| Volume [angstrom^3]:                                       983.249569
 CELL_TOP| Vector a [angstrom     7.012     0.000     0.000   |a| =     7.011596
 CELL_TOP| Vector b [angstrom     0.000     7.012     0.000   |b| =     7.011596
 CELL_TOP| Vector c [angstrom     0.000     0.000    20.000   |c| =    20.000000
 CELL_TOP| Angle (b,c), alpha [degree]:                                90.000000
 CELL_TOP| Angle (a,c), beta  [degree]:                                90.000000
 CELL_TOP| Angle (a,b), gamma [degree]:                                90.000000
 CELL_TOP| Numerically orthorhombic:                                         YES
 CELL_TOP| Periodicity                                                       XYZ

 GENERATE|  Preliminary Number of Bonds generated:                             0
 GENERATE|  Achieved consistency in connectivity generation.

 CELL| Volume [angstrom^3]:                                           983.249569
 CELL| Vector a [angstrom]:       7.012     0.000     0.000   |a| =     7.011596
 CELL| Vector b [angstrom]:       0.000     7.012     0.000   |b| =     7.011596
 CELL| Vector c [angstrom]:       0.000     0.000    20.000   |c| =    20.000000
 CELL| Angle (b,c), alpha [degree]:                                    90.000000
 CELL| Angle (a,c), beta  [degree]:                                    90.000000
 CELL| Angle (a,b), gamma [degree]:                                    90.000000
 CELL| Numerically orthorhombic:                                             YES
 CELL| Periodicity                                                           XYZ

 CELL_REF| Volume [angstrom^3]:                                       983.249569
 CELL_REF| Vector a [angstrom     7.012     0.000     0.000   |a| =     7.011596
 CELL_REF| Vector b [angstrom     0.000     7.012     0.000   |b| =     7.011596
 CELL_REF| Vector c [angstrom     0.000     0.000    20.000   |c| =    20.000000
 CELL_REF| Angle (b,c), alpha [degree]:                                90.000000
 CELL_REF| Angle (a,c), beta  [degree]:                                90.000000
 CELL_REF| Angle (a,b), gamma [degree]:                                90.000000
 CELL_REF| Numerically orthorhombic:                                         YES
 CELL_REF| Periodicity                                                       XYZ

 *** WARNING in cryssym.F:165 :: Symmetry library SPGLIB not available ***


 *******************************************************************************
                                    Kpoints
 *******************************************************************************
 BRILLOUIN| K-point scheme                                        Monkhorst-Pack
 BRILLOUIN| K-Point grid                                             4    4    1
 BRILLOUIN| Accuracy in Symmetry determination                      0.100000E-05
 BRILLOUIN| K-Point point group symmetrization                               OFF
 BRILLOUIN| Wavefunction type                                            COMPLEX
 BRILLOUIN| List of Kpoints [2 Pi/Bohr]                                        8
 BRILLOUIN| Number           Weight            X              Y              Z
 BRILLOUIN|     1           0.12500       -0.37500       -0.37500        0.00000
 BRILLOUIN|     2           0.12500       -0.37500       -0.12500        0.00000
 BRILLOUIN|     3           0.12500       -0.37500        0.12500        0.00000
 BRILLOUIN|     4           0.12500       -0.37500        0.37500        0.00000
 BRILLOUIN|     5           0.12500       -0.12500       -0.37500        0.00000
 BRILLOUIN|     6           0.12500       -0.12500       -0.12500        0.00000
 BRILLOUIN|     7           0.12500       -0.12500        0.12500        0.00000
 BRILLOUIN|     8           0.12500       -0.12500        0.37500        0.00000
 *******************************************************************************

 *******************************************************************************
 *******************************************************************************
 **                                                                           **
 **     #####                         ##              ##                      **
 **    ##   ##            ##          ##              ##                      **
 **   ##     ##                       ##            ######                    **
 **   ##     ##  ##   ##  ##   #####  ##  ##   ####   ##    #####    #####    **
 **   ##     ##  ##   ##  ##  ##      ## ##   ##      ##   ##   ##  ##   ##   **
 **   ##  ## ##  ##   ##  ##  ##      ####     ###    ##   ######   ######    **
 **    ##  ###   ##   ##  ##  ##      ## ##      ##   ##   ##       ##        **
 **     #######   #####   ##   #####  ##  ##  ####    ##    #####   ##        **
 **           ##                                                    ##        **
 **                                                                           **
 **                                                ... make the atoms dance   **
 **                                                                           **
 **            Copyright (C) by CP2K developers group (2000-2023)             **
 **                      J. Chem. Phys. 152, 194103 (2020)                    **
 **                                                                           **
 *******************************************************************************

 *** WARNING in qs_environment.F:1456 :: Number of electrons will be ***
 *** overwritten by NELEC_ALPHA and NELEC_BETA, multiplicity will be ***
 *** ignored.                                                        ***

 Number of electrons should be                                               576
 Sum of NELEC_ALPHA and NELEC_BETA is                                    576.000

 *** WARNING in qs_environment.F:1488 :: NELEC_ALPHA is not an integer, ***
 *** many features will not be supported.                               ***


 *** WARNING in qs_environment.F:1500 :: NELEC_BETA is not an integer, ***
 *** many features will not be supported.                              ***


 *** WARNING in qs_environment.F:1532 :: More ADDED_MOs requested for beta ***
 *** spin than available.                                                  ***


 *** WARNING in qs_environment.F:1548 :: More added MOs requested than     ***
 *** available. The full set of unoccupied MOs will be used. Use           ***
 *** 'ADDED_MOS -1' to always use all available MOs and to get rid of this ***
 *** warning.                                                              ***


 DFT| Spin unrestricted (spin-polarized) Kohn-Sham calculation               UKS
 DFT| Multiplicity                                                             1
 DFT| Number of spin states                                                    2
 DFT| Charge                                                                   0
 DFT| Self-interaction correction (SIC)                                       NO
 DFT| Cutoffs: density                                              1.000000E-10
 DFT|          gradient                                             1.000000E-10
 DFT|          tau                                                  1.000000E-10
 DFT|          cutoff_smoothing_range                               0.000000E+00
 DFT| XC density smoothing                                                  NONE
 DFT| XC derivatives                                                          PW

 FUNCTIONAL| PBE:
 FUNCTIONAL| J.P.Perdew, K.Burke, M.Ernzerhof, Phys. Rev. Letter, vol. 77, n 18,
 FUNCTIONAL|  pp. 3865-3868, (1996){spin polarized}                             

 vdW POTENTIAL|                                                   Pair Potential
 vdW POTENTIAL|          DFT-D3 (Version 3.1)
 vdW POTENTIAL|          Potential Form: S. Grimme et al, JCP 132: 154104 (2010)
 vdW POTENTIAL|          Zero Damping
 vdW POTENTIAL|          Cutoff Radius [Bohr]:                             20.00
 vdW POTENTIAL|          s6 Scaling Factor:                               1.0000
 vdW POTENTIAL|          sr6 Scaling Factor:                              1.2170
 vdW POTENTIAL|          s8 Scaling Factor:                               0.7220
 vdW POTENTIAL|          Cutoff for CN calculation:                   0.1000E-05

 QS| Method:                                                                 GPW
 QS| Density plane wave grid type                        NON-SPHERICAL FULLSPACE
 QS| Number of grid levels:                                                    5
 QS| Density cutoff [a.u.]:                                                300.0
 QS| Multi grid cutoff [a.u.]: 1) grid level                               300.0
 QS|                           2) grid level                               100.0
 QS|                           3) grid level                                33.3
 QS|                           4) grid level                                11.1
 QS|                           5) grid level                                 3.7
 QS| Grid level progression factor:                                          3.0
 QS| Relative density cutoff [a.u.]:                                        30.0
 QS| Interaction thresholds: eps_pgf_orb:                                1.0E-06
 QS|                         eps_filter_matrix:                          0.0E+00
 QS|                         eps_core_charge:                            1.0E-14
 QS|                         eps_rho_gspace:                             1.0E-12
 QS|                         eps_rho_rspace:                             1.0E-12
 QS|                         eps_gvg_rspace:                             1.0E-06
 QS|                         eps_ppl:                                    1.0E-02
 QS|                         eps_ppnl:                                   1.0E-08


 ATOMIC KIND INFORMATION

  1. Atomic kind: Ni_i                                  Number of atoms:      16

     Orbital Basis Set                                        DZVP-MOLOPT-SR-GTH

       Number of orbital shell sets:                                           1
       Number of orbital shells:                                               8
       Number of primitive Cartesian functions:                                6
       Number of Cartesian basis functions:                                   31
       Number of spherical basis functions:                                   26
       Norm type:                                                              2

       Normalised Cartesian orbitals:

                        Set   Shell   Orbital            Exponent    Coefficient

                          1       1    2s               10.077428      -0.684558
                                                         5.847736      -0.844524
                                                         2.494033       1.088856
                                                         0.988355       0.395503
                                                         0.344978       0.010224
                                                         0.099466      -0.003250

                          1       2    3s               10.077428       0.096747
                                                         5.847736       0.162504
                                                         2.494033      -0.297192
                                                         0.988355      -0.319752
                                                         0.344978       0.088318
                                                         0.099466       0.118587

                          1       3    4s               10.077428       0.036437
                                                         5.847736      -0.381480
                                                         2.494033       0.003759
                                                         0.988355      -1.048256
                                                         0.344978       0.855825
                                                         0.099466      -0.176350

                          1       4    3px              10.077428      -3.133913
                                                         5.847736       3.027656
                                                         2.494033       2.353227
                                                         0.988355       0.554184
                                                         0.344978       0.019462
                                                         0.099466      -0.000291
                          1       4    3py              10.077428      -3.133913
                                                         5.847736       3.027656
                                                         2.494033       2.353227
                                                         0.988355       0.554184
                                                         0.344978       0.019462
                                                         0.099466      -0.000291
                          1       4    3pz              10.077428      -3.133913
                                                         5.847736       3.027656
                                                         2.494033       2.353227
                                                         0.988355       0.554184
                                                         0.344978       0.019462
                                                         0.099466      -0.000291

                          1       5    4px              10.077428      -0.112729
                                                         5.847736      -0.114008
                                                         2.494033      -0.347303
                                                         0.988355      -0.110323
                                                         0.344978       0.154096
                                                         0.099466       0.058386
                          1       5    4py              10.077428      -0.112729
                                                         5.847736      -0.114008
                                                         2.494033      -0.347303
                                                         0.988355      -0.110323
                                                         0.344978       0.154096
                                                         0.099466       0.058386
                          1       5    4pz              10.077428      -0.112729
                                                         5.847736      -0.114008
                                                         2.494033      -0.347303
                                                         0.988355      -0.110323
                                                         0.344978       0.154096
                                                         0.099466       0.058386

                          1       6    4dx2             10.077428       8.232726
                                                         5.847736       9.105758
                                                         2.494033       2.849835
                                                         0.988355       0.554319
                                                         0.344978       0.067245
                                                         0.099466       0.001940
                          1       6    4dxy             10.077428      14.259500
                                                         5.847736      15.771636
                                                         2.494033       4.936060
                                                         0.988355       0.960109
                                                         0.344978       0.116472
                                                         0.099466       0.003360
                          1       6    4dxz             10.077428      14.259500
                                                         5.847736      15.771636
                                                         2.494033       4.936060
                                                         0.988355       0.960109
                                                         0.344978       0.116472
                                                         0.099466       0.003360
                          1       6    4dy2             10.077428       8.232726
                                                         5.847736       9.105758
                                                         2.494033       2.849835
                                                         0.988355       0.554319
                                                         0.344978       0.067245
                                                         0.099466       0.001940
                          1       6    4dyz             10.077428      14.259500
                                                         5.847736      15.771636
                                                         2.494033       4.936060
                                                         0.988355       0.960109
                                                         0.344978       0.116472
                                                         0.099466       0.003360
                          1       6    4dz2             10.077428       8.232726
                                                         5.847736       9.105758
                                                         2.494033       2.849835
                                                         0.988355       0.554319
                                                         0.344978       0.067245
                                                         0.099466       0.001940

                          1       7    5dx2             10.077428      -2.715373
                                                         5.847736      -4.020640
                                                         2.494033      -1.397569
                                                         0.988355      -0.076143
                                                         0.344978       0.033435
                                                         0.099466       0.026032
                          1       7    5dxy             10.077428      -4.703164
                                                         5.847736      -6.963952
                                                         2.494033      -2.420661
                                                         0.988355      -0.131883
                                                         0.344978       0.057911
                                                         0.099466       0.045088
                          1       7    5dxz             10.077428      -4.703164
                                                         5.847736      -6.963952
                                                         2.494033      -2.420661
                                                         0.988355      -0.131883
                                                         0.344978       0.057911
                                                         0.099466       0.045088
                          1       7    5dy2             10.077428      -2.715373
                                                         5.847736      -4.020640
                                                         2.494033      -1.397569
                                                         0.988355      -0.076143
                                                         0.344978       0.033435
                                                         0.099466       0.026032
                          1       7    5dyz             10.077428      -4.703164
                                                         5.847736      -6.963952
                                                         2.494033      -2.420661
                                                         0.988355      -0.131883
                                                         0.344978       0.057911
                                                         0.099466       0.045088
                          1       7    5dz2             10.077428      -2.715373
                                                         5.847736      -4.020640
                                                         2.494033      -1.397569
                                                         0.988355      -0.076143
                                                         0.344978       0.033435
                                                         0.099466       0.026032

                          1       8    5fx3             10.077428      -0.467694
                                                         5.847736       0.618100
                                                         2.494033       0.066069
                                                         0.988355       0.262898
                                                         0.344978       0.004720
                                                         0.099466       0.007748
                          1       8    5fx2y            10.077428      -1.045795
                                                         5.847736       1.382114
                                                         2.494033       0.147734
                                                         0.988355       0.587859
                                                         0.344978       0.010555
                                                         0.099466       0.017325
                          1       8    5fx2z            10.077428      -1.045795
                                                         5.847736       1.382114
                                                         2.494033       0.147734
                                                         0.988355       0.587859
                                                         0.344978       0.010555
                                                         0.099466       0.017325
                          1       8    5fxy2            10.077428      -1.045795
                                                         5.847736       1.382114
                                                         2.494033       0.147734
                                                         0.988355       0.587859
                                                         0.344978       0.010555
                                                         0.099466       0.017325
                          1       8    5fxyz            10.077428      -1.811371
                                                         5.847736       2.393892
                                                         2.494033       0.255883
                                                         0.988355       1.018201
                                                         0.344978       0.018282
                                                         0.099466       0.030008
                          1       8    5fxz2            10.077428      -1.045795
                                                         5.847736       1.382114
                                                         2.494033       0.147734
                                                         0.988355       0.587859
                                                         0.344978       0.010555
                                                         0.099466       0.017325
                          1       8    5fy3             10.077428      -0.467694
                                                         5.847736       0.618100
                                                         2.494033       0.066069
                                                         0.988355       0.262898
                                                         0.344978       0.004720
                                                         0.099466       0.007748
                          1       8    5fy2z            10.077428      -1.045795
                                                         5.847736       1.382114
                                                         2.494033       0.147734
                                                         0.988355       0.587859
                                                         0.344978       0.010555
                                                         0.099466       0.017325
                          1       8    5fyz2            10.077428      -1.045795
                                                         5.847736       1.382114
                                                         2.494033       0.147734
                                                         0.988355       0.587859
                                                         0.344978       0.010555
                                                         0.099466       0.017325
                          1       8    5fz3             10.077428      -0.467694
                                                         5.847736       0.618100
                                                         2.494033       0.066069
                                                         0.988355       0.262898
                                                         0.344978       0.004720
                                                         0.099466       0.007748

       Atomic covalent radius [Angstrom]:                                  1.150

       Atomic van der Waals radius [Angstrom]:                             1.630

     GTH Potential information for                                   GTH-PBE-q18

       Description:                       Goedecker-Teter-Hutter pseudopotential
                                           Goedecker et al., PRB 54, 1703 (1996)
                                          Hartwigsen et al., PRB 58, 3641 (1998)
                                                      Krack, TCA 114, 145 (2005)

       Gaussian exponent of the core charge distribution:               4.081633
       Electronic configuration (s p d ...):                           4   6   8

       Parameters of the local part of the GTH pseudopotential:

                          rloc        C1          C2          C3          C4
                        0.350000    2.102166    0.648484

       Parameters of the non-local part of the GTH pseudopotential:

                   l      r(l)      h(i,j,l)

                   0    0.261295    0.622658    9.970227
                                    9.970227  -12.871507
                   1    0.224253  -11.142708   12.429566
                                   12.429566  -14.706861
                   2    0.215348  -12.628146

  2. Atomic kind: Ni_b                                  Number of atoms:      16

     Orbital Basis Set                                        DZVP-MOLOPT-SR-GTH

       Number of orbital shell sets:                                           1
       Number of orbital shells:                                               8
       Number of primitive Cartesian functions:                                6
       Number of Cartesian basis functions:                                   31
       Number of spherical basis functions:                                   26
       Norm type:                                                              2

       Normalised Cartesian orbitals:

                        Set   Shell   Orbital            Exponent    Coefficient

                          1       1    2s               10.077428      -0.684558
                                                         5.847736      -0.844524
                                                         2.494033       1.088856
                                                         0.988355       0.395503
                                                         0.344978       0.010224
                                                         0.099466      -0.003250

                          1       2    3s               10.077428       0.096747
                                                         5.847736       0.162504
                                                         2.494033      -0.297192
                                                         0.988355      -0.319752
                                                         0.344978       0.088318
                                                         0.099466       0.118587

                          1       3    4s               10.077428       0.036437
                                                         5.847736      -0.381480
                                                         2.494033       0.003759
                                                         0.988355      -1.048256
                                                         0.344978       0.855825
                                                         0.099466      -0.176350

                          1       4    3px              10.077428      -3.133913
                                                         5.847736       3.027656
                                                         2.494033       2.353227
                                                         0.988355       0.554184
                                                         0.344978       0.019462
                                                         0.099466      -0.000291
                          1       4    3py              10.077428      -3.133913
                                                         5.847736       3.027656
                                                         2.494033       2.353227
                                                         0.988355       0.554184
                                                         0.344978       0.019462
                                                         0.099466      -0.000291
                          1       4    3pz              10.077428      -3.133913
                                                         5.847736       3.027656
                                                         2.494033       2.353227
                                                         0.988355       0.554184
                                                         0.344978       0.019462
                                                         0.099466      -0.000291

                          1       5    4px              10.077428      -0.112729
                                                         5.847736      -0.114008
                                                         2.494033      -0.347303
                                                         0.988355      -0.110323
                                                         0.344978       0.154096
                                                         0.099466       0.058386
                          1       5    4py              10.077428      -0.112729
                                                         5.847736      -0.114008
                                                         2.494033      -0.347303
                                                         0.988355      -0.110323
                                                         0.344978       0.154096
                                                         0.099466       0.058386
                          1       5    4pz              10.077428      -0.112729
                                                         5.847736      -0.114008
                                                         2.494033      -0.347303
                                                         0.988355      -0.110323
                                                         0.344978       0.154096
                                                         0.099466       0.058386

                          1       6    4dx2             10.077428       8.232726
                                                         5.847736       9.105758
                                                         2.494033       2.849835
                                                         0.988355       0.554319
                                                         0.344978       0.067245
                                                         0.099466       0.001940
                          1       6    4dxy             10.077428      14.259500
                                                         5.847736      15.771636
                                                         2.494033       4.936060
                                                         0.988355       0.960109
                                                         0.344978       0.116472
                                                         0.099466       0.003360
                          1       6    4dxz             10.077428      14.259500
                                                         5.847736      15.771636
                                                         2.494033       4.936060
                                                         0.988355       0.960109
                                                         0.344978       0.116472
                                                         0.099466       0.003360
                          1       6    4dy2             10.077428       8.232726
                                                         5.847736       9.105758
                                                         2.494033       2.849835
                                                         0.988355       0.554319
                                                         0.344978       0.067245
                                                         0.099466       0.001940
                          1       6    4dyz             10.077428      14.259500
                                                         5.847736      15.771636
                                                         2.494033       4.936060
                                                         0.988355       0.960109
                                                         0.344978       0.116472
                                                         0.099466       0.003360
                          1       6    4dz2             10.077428       8.232726
                                                         5.847736       9.105758
                                                         2.494033       2.849835
                                                         0.988355       0.554319
                                                         0.344978       0.067245
                                                         0.099466       0.001940

                          1       7    5dx2             10.077428      -2.715373
                                                         5.847736      -4.020640
                                                         2.494033      -1.397569
                                                         0.988355      -0.076143
                                                         0.344978       0.033435
                                                         0.099466       0.026032
                          1       7    5dxy             10.077428      -4.703164
                                                         5.847736      -6.963952
                                                         2.494033      -2.420661
                                                         0.988355      -0.131883
                                                         0.344978       0.057911
                                                         0.099466       0.045088
                          1       7    5dxz             10.077428      -4.703164
                                                         5.847736      -6.963952
                                                         2.494033      -2.420661
                                                         0.988355      -0.131883
                                                         0.344978       0.057911
                                                         0.099466       0.045088
                          1       7    5dy2             10.077428      -2.715373
                                                         5.847736      -4.020640
                                                         2.494033      -1.397569
                                                         0.988355      -0.076143
                                                         0.344978       0.033435
                                                         0.099466       0.026032
                          1       7    5dyz             10.077428      -4.703164
                                                         5.847736      -6.963952
                                                         2.494033      -2.420661
                                                         0.988355      -0.131883
                                                         0.344978       0.057911
                                                         0.099466       0.045088
                          1       7    5dz2             10.077428      -2.715373
                                                         5.847736      -4.020640
                                                         2.494033      -1.397569
                                                         0.988355      -0.076143
                                                         0.344978       0.033435
                                                         0.099466       0.026032

                          1       8    5fx3             10.077428      -0.467694
                                                         5.847736       0.618100
                                                         2.494033       0.066069
                                                         0.988355       0.262898
                                                         0.344978       0.004720
                                                         0.099466       0.007748
                          1       8    5fx2y            10.077428      -1.045795
                                                         5.847736       1.382114
                                                         2.494033       0.147734
                                                         0.988355       0.587859
                                                         0.344978       0.010555
                                                         0.099466       0.017325
                          1       8    5fx2z            10.077428      -1.045795
                                                         5.847736       1.382114
                                                         2.494033       0.147734
                                                         0.988355       0.587859
                                                         0.344978       0.010555
                                                         0.099466       0.017325
                          1       8    5fxy2            10.077428      -1.045795
                                                         5.847736       1.382114
                                                         2.494033       0.147734
                                                         0.988355       0.587859
                                                         0.344978       0.010555
                                                         0.099466       0.017325
                          1       8    5fxyz            10.077428      -1.811371
                                                         5.847736       2.393892
                                                         2.494033       0.255883
                                                         0.988355       1.018201
                                                         0.344978       0.018282
                                                         0.099466       0.030008
                          1       8    5fxz2            10.077428      -1.045795
                                                         5.847736       1.382114
                                                         2.494033       0.147734
                                                         0.988355       0.587859
                                                         0.344978       0.010555
                                                         0.099466       0.017325
                          1       8    5fy3             10.077428      -0.467694
                                                         5.847736       0.618100
                                                         2.494033       0.066069
                                                         0.988355       0.262898
                                                         0.344978       0.004720
                                                         0.099466       0.007748
                          1       8    5fy2z            10.077428      -1.045795
                                                         5.847736       1.382114
                                                         2.494033       0.147734
                                                         0.988355       0.587859
                                                         0.344978       0.010555
                                                         0.099466       0.017325
                          1       8    5fyz2            10.077428      -1.045795
                                                         5.847736       1.382114
                                                         2.494033       0.147734
                                                         0.988355       0.587859
                                                         0.344978       0.010555
                                                         0.099466       0.017325
                          1       8    5fz3             10.077428      -0.467694
                                                         5.847736       0.618100
                                                         2.494033       0.066069
                                                         0.988355       0.262898
                                                         0.344978       0.004720
                                                         0.099466       0.007748

       Atomic covalent radius [Angstrom]:                                  1.150

       Atomic van der Waals radius [Angstrom]:                             1.630

     GTH Potential information for                                   GTH-PBE-q18

       Description:                       Goedecker-Teter-Hutter pseudopotential
                                           Goedecker et al., PRB 54, 1703 (1996)
                                          Hartwigsen et al., PRB 58, 3641 (1998)
                                                      Krack, TCA 114, 145 (2005)

       Gaussian exponent of the core charge distribution:               4.081633
       Electronic configuration (s p d ...):                           4   6   8

       Parameters of the local part of the GTH pseudopotential:

                          rloc        C1          C2          C3          C4
                        0.350000    2.102166    0.648484

       Parameters of the non-local part of the GTH pseudopotential:

                   l      r(l)      h(i,j,l)

                   0    0.261295    0.622658    9.970227
                                    9.970227  -12.871507
                   1    0.224253  -11.142708   12.429566
                                   12.429566  -14.706861
                   2    0.215348  -12.628146


 MOLECULE KIND INFORMATION


 All atoms are their own molecule, skipping detailed information


 TOTAL NUMBERS AND MAXIMUM NUMBERS

  Total number of            - Atomic kinds:                                   2
                             - Atoms:                                         32
                             - Shell sets:                                    32
                             - Shells:                                       256
                             - Primitive Cartesian functions:                192
                             - Cartesian basis functions:                    992
                             - Spherical basis functions:                    832

  Maximum angular momentum of- Orbital basis functions:                        3
                             - Local part of the GTH pseudopotential:          2
                             - Non-local part of the GTH pseudopotential:      3


 MODULE QUICKSTEP: ATOMIC COORDINATES IN ANGSTROM

   Atom Kind Element         X             Y             Z       Z(eff)     Mass
      1    1 Ni   28      0.876298      0.876298      7.370500  18.0000  58.6934
      2    1 Ni   28      0.876298      4.382298      7.370500  18.0000  58.6934
      3    1 Ni   28      2.629298      2.629298      7.370500  18.0000  58.6934
      4    1 Ni   28      2.629298      6.135298      7.370500  18.0000  58.6934
      5    1 Ni   28      4.382298      0.876298      7.370500  18.0000  58.6934
      6    1 Ni   28      4.382298      4.382298      7.370500  18.0000  58.6934
      7    1 Ni   28      6.135298      2.629298      7.370500  18.0000  58.6934
      8    1 Ni   28      6.135298      6.135298      7.370500  18.0000  58.6934
      9    2 Ni   28      0.876298      2.629298      9.123500  18.0000  58.6934
     10    2 Ni   28      0.876298      6.135298      9.123500  18.0000  58.6934
     11    2 Ni   28      2.629298      0.876298      9.123500  18.0000  58.6934
     12    2 Ni   28      2.629298      4.382298      9.123500  18.0000  58.6934
     13    2 Ni   28      4.382298      2.629298      9.123500  18.0000  58.6934
     14    2 Ni   28      4.382298      6.135298      9.123500  18.0000  58.6934
     15    2 Ni   28      6.135298      0.876298      9.123500  18.0000  58.6934
     16    2 Ni   28      6.135298      4.382298      9.123500  18.0000  58.6934
     17    2 Ni   28      0.876298      0.876298     10.876500  18.0000  58.6934
     18    2 Ni   28      0.876298      4.382298     10.876500  18.0000  58.6934
     19    2 Ni   28      2.629298      2.629298     10.876500  18.0000  58.6934
     20    2 Ni   28      2.629298      6.135298     10.876500  18.0000  58.6934
     21    2 Ni   28      4.382298      0.876298     10.876500  18.0000  58.6934
     22    2 Ni   28      4.382298      4.382298     10.876500  18.0000  58.6934
     23    2 Ni   28      6.135298      2.629298     10.876500  18.0000  58.6934
     24    2 Ni   28      6.135298      6.135298     10.876500  18.0000  58.6934
     25    1 Ni   28      0.876298      2.629298     12.629500  18.0000  58.6934
     26    1 Ni   28      0.876298      6.135298     12.629500  18.0000  58.6934
     27    1 Ni   28      2.629298      0.876298     12.629500  18.0000  58.6934
     28    1 Ni   28      2.629298      4.382298     12.629500  18.0000  58.6934
     29    1 Ni   28      4.382298      2.629298     12.629500  18.0000  58.6934
     30    1 Ni   28      4.382298      6.135298     12.629500  18.0000  58.6934
     31    1 Ni   28      6.135298      0.876298     12.629500  18.0000  58.6934
     32    1 Ni   28      6.135298      4.382298     12.629500  18.0000  58.6934



 SCF PARAMETERS         Density guess:                                    ATOMIC
                        --------------------------------------------------------
                        max_scf:                                             500
                        max_scf_history:                                       0
                        max_diis:                                              4
                        --------------------------------------------------------
                        eps_scf:                                        1.00E-04
                        eps_scf_history:                                0.00E+00
                        eps_diis:                                       1.00E-01
                        eps_eigval:                                     1.00E-05
                        --------------------------------------------------------
                        level_shift [a.u.]:                             0.000000
                        added MOs                                       534  553
                        --------------------------------------------------------
                        Mixing method:                            BROYDEN_MIXING
                                                charge density mixing in g-space
                        --------------------------------------------------------
                        Smear method:                                FERMI_DIRAC
                        Electronic temperature [K]:                       2000.0
                        Electronic temperature [a.u.]:                  6.33E-03
                        Accuracy threshold:                             1.00E-10
                        --------------------------------------------------------
                        No outer SCF

 PW_GRID| Information for grid number                                          1
 PW_GRID| Grid distributed over                                   128 processors
 PW_GRID| Real space group dimensions                                     8   16
 PW_GRID| the grid is blocked:                                               YES
 PW_GRID| Cutoff [a.u.]                                                    300.0
 PW_GRID| spherical cutoff:                                                   NO
 PW_GRID|   Bounds   1            -54      53                Points:         108
 PW_GRID|   Bounds   2            -54      53                Points:         108
 PW_GRID|   Bounds   3           -150     149                Points:         300
 PW_GRID| Volume element (a.u.^3)  0.1896E-02     Volume (a.u.^3)      6635.2971
 PW_GRID| Grid span                                                    FULLSPACE
 PW_GRID|   Distribution                         Average         Max         Min
 PW_GRID|   G-Vectors                            27337.5       28728       25272
 PW_GRID|   G-Rays                                 253.1         266         234
 PW_GRID|   Real Space Points                    27337.5       28728       25272

 PW_GRID| Information for grid number                                          2
 PW_GRID| Number of the reference grid                                         1
 PW_GRID| Grid distributed over                                   128 processors
 PW_GRID| Real space group dimensions                                     8   16
 PW_GRID| the grid is blocked:                                                NO
 PW_GRID| Cutoff [a.u.]                                                    100.0
 PW_GRID| spherical cutoff:                                                   NO
 PW_GRID|   Bounds   1            -30      29                Points:          60
 PW_GRID|   Bounds   2            -30      29                Points:          60
 PW_GRID|   Bounds   3            -90      89                Points:         180
 PW_GRID| Volume element (a.u.^3)  0.1024E-01     Volume (a.u.^3)      6635.2971
 PW_GRID| Grid span                                                    FULLSPACE
 PW_GRID|   Distribution                         Average         Max         Min
 PW_GRID|   G-Vectors                             5062.5       15960           0
 PW_GRID|   G-Rays                                  84.4         266           0
 PW_GRID|   Real Space Points                     5062.5        5760        3780

 PW_GRID| Information for grid number                                          3
 PW_GRID| Number of the reference grid                                         1
 PW_GRID| Grid distributed over                                   128 processors
 PW_GRID| Real space group dimensions                                     8   16
 PW_GRID| the grid is blocked:                                                NO
 PW_GRID| Cutoff [a.u.]                                                     33.3
 PW_GRID| spherical cutoff:                                                   NO
 PW_GRID|   Bounds   1            -18      17                Points:          36
 PW_GRID|   Bounds   2            -18      17                Points:          36
 PW_GRID|   Bounds   3            -50      49                Points:         100
 PW_GRID| Volume element (a.u.^3)  0.5120E-01     Volume (a.u.^3)      6635.2971
 PW_GRID| Grid span                                                    FULLSPACE
 PW_GRID|   Distribution                         Average         Max         Min
 PW_GRID|   G-Vectors                             1012.5        9576           0
 PW_GRID|   G-Rays                                  28.1         266           0
 PW_GRID|   Real Space Points                     1012.5        1500         800

 PW_GRID| Information for grid number                                          4
 PW_GRID| Number of the reference grid                                         1
 PW_GRID| Grid distributed over                                   128 processors
 PW_GRID| Real space group dimensions                                     8   16
 PW_GRID| the grid is blocked:                                                NO
 PW_GRID| Cutoff [a.u.]                                                     11.1
 PW_GRID| spherical cutoff:                                                   NO
 PW_GRID|   Bounds   1            -10       9                Points:          20
 PW_GRID|   Bounds   2            -10       9                Points:          20
 PW_GRID|   Bounds   3            -30      29                Points:          60
 PW_GRID| Volume element (a.u.^3)  0.2765         Volume (a.u.^3)      6635.2971
 PW_GRID| Grid span                                                    FULLSPACE
 PW_GRID|   Distribution                         Average         Max         Min
 PW_GRID|   G-Vectors                              187.5        3800           0
 PW_GRID|   G-Rays                                   9.4         190           0
 PW_GRID|   Real Space Points                      187.5         360         120

 PW_GRID| Information for grid number                                          5
 PW_GRID| Number of the reference grid                                         1
 PW_GRID| Grid distributed over                                   128 processors
 PW_GRID| Real space group dimensions                                     8   16
 PW_GRID| the grid is blocked:                                                NO
 PW_GRID| Cutoff [a.u.]                                                      3.7
 PW_GRID| spherical cutoff:                                                   NO
 PW_GRID|   Bounds   1             -6       5                Points:          12
 PW_GRID|   Bounds   2             -6       5                Points:          12
 PW_GRID|   Bounds   3            -18      17                Points:          36
 PW_GRID| Volume element (a.u.^3)   1.280         Volume (a.u.^3)      6635.2971
 PW_GRID| Grid span                                                    FULLSPACE
 PW_GRID|   Distribution                         Average         Max         Min
 PW_GRID|   G-Vectors                               40.5        1296           0
 PW_GRID|   G-Rays                                   3.4         108           0
 PW_GRID|   Real Space Points                       40.5          72           0

 POISSON| Solver                                                        PERIODIC
 POISSON| Periodicity                                                        XYZ

 RS_GRID| Information for grid number                                          1
 RS_GRID|   Bounds   1            -54      53                Points:         108
 RS_GRID|   Bounds   2            -54      53                Points:         108
 RS_GRID|   Bounds   3           -150     149                Points:         300
 RS_GRID| Real space distribution over                                  8 groups
 RS_GRID| Real space distribution along direction                              2
 RS_GRID| Border size                                                         28
 RS_GRID| Real space distribution over                                 16 groups
 RS_GRID| Real space distribution along direction                              3
 RS_GRID| Border size                                                         28
 RS_GRID|   Distribution                         Average         Max         Min
 RS_GRID|   Planes                                  69.5          70          69
 RS_GRID|   Distribution                         Average         Max         Min
 RS_GRID|   Planes                                  74.8          75          74

 RS_GRID| Information for grid number                                          2
 RS_GRID|   Bounds   1            -30      29                Points:          60
 RS_GRID|   Bounds   2            -30      29                Points:          60
 RS_GRID|   Bounds   3            -90      89                Points:         180
 RS_GRID| Real space fully replicated
 RS_GRID| Group size                                                           1

 RS_GRID| Information for grid number                                          3
 RS_GRID|   Bounds   1            -18      17                Points:          36
 RS_GRID|   Bounds   2            -18      17                Points:          36
 RS_GRID|   Bounds   3            -50      49                Points:         100
 RS_GRID| Real space fully replicated
 RS_GRID| Group size                                                           1

 RS_GRID| Information for grid number                                          4
 RS_GRID|   Bounds   1            -10       9                Points:          20
 RS_GRID|   Bounds   2            -10       9                Points:          20
 RS_GRID|   Bounds   3            -30      29                Points:          60
 RS_GRID| Real space fully replicated
 RS_GRID| Group size                                                           1

 RS_GRID| Information for grid number                                          5
 RS_GRID|   Bounds   1             -6       5                Points:          12
 RS_GRID|   Bounds   2             -6       5                Points:          12
 RS_GRID|   Bounds   3            -18      17                Points:          36
 RS_GRID| Real space fully replicated
 RS_GRID| Group size                                                           1

 Spin 1

 Number of electrons:                                                        297.600
 Number of occupied orbitals:                                                298
 Number of molecular orbitals:                                               832

 Spin 2

 Number of electrons:                                                        278.400
 Number of occupied orbitals:                                                279
 Number of molecular orbitals:                                               832

 Number of orbital functions:                                                832
 Number of independent orbital functions:                                    832

 Extrapolation method: initial_guess

 Atomic guess: The first density matrix is obtained in terms of atomic orbitals
               and electronic configurations assigned to each atomic kind

 Guess for atomic kind: Ni_i

 Electronic structure
    Total number of core electrons                                         10.00
    Total number of valence electrons                                      18.00
    Total number of electrons                                              28.00
    Multiplicity                                                         doublet
    Alpha Electrons
    S   [  1.00  1.00] 1.00  1.00
    P   [  3.00] 3.00
    D      4.35
    Beta Electrons
    S   [  1.00  1.00] 1.00  1.00
    P   [  3.00] 3.00
    D      3.65


 *******************************************************************************
                  Iteration          Convergence                     Energy [au]
 *******************************************************************************
                          1         1.51729                    -167.067424631347
                          2         15.3902                    -156.642654318634
                          3         2.33433                    -168.319355313541
                          4        0.206730                    -168.609905008081
                          5        0.814175E-01                -168.612873080494
                          6        0.173318E-01                -168.613470181066
                          7        0.290432E-02                -168.613543571401
                          8        0.311825E-02                -168.613543401474
                          9        0.179670E-03                -168.613544404477
                         10        0.169386E-02                -168.613544207811
                         11        0.473341E-03                -168.613544360253
                         12        0.165417E-03                -168.613544400419
                         13        0.162622E-03                -168.613544401489
                         14        0.158325E-03                -168.613544403900
                         15        0.177007E-03                -168.613544402509
                         16        0.138916E-03                -168.613544404900
                         17        0.934549E-04                -168.613544406149
                         18        0.119916E-03                -168.613544405789
                         19        0.131607E-03                -168.613544405591
                         20        0.169309E-03                -168.613544404773
                         21        0.551337E-04                -168.613544406656
                         22        0.382664E-04                -168.613544406759
                         23        0.378942E-04                -168.613544406765
                         24        0.381089E-04                -168.613544406765
                         25        0.390835E-04                -168.613544406759
                         26        0.308614E-04                -168.613544406841
                         27        0.205044E-04                -168.613544406892
                         28        0.200942E-04                -168.613544406893
                         29        0.199375E-04                -168.613544406893
                         30        0.200198E-04                -168.613544406894
                         31        0.161325E-04                -168.613544406903
                         32        0.330614E-05                -168.613544406925
                         33        0.238713E-05                -168.613544406926
                         34        0.265439E-05                -168.613544406926
                         35        0.277073E-05                -168.613544406926
                         36        0.335175E-05                -168.613544406926
                         37        0.148809E-05                -168.613544406927
                         38        0.133447E-05                -168.613544406927
                         39        0.918735E-06                -168.613544406927

 Energy components [Hartree]           Total Energy ::         -168.613544406927
                                        Band Energy ::          -26.569761966525
                                     Kinetic Energy ::           97.306723392622
                                   Potential Energy ::         -265.920267799548
                                      Virial (-V/T) ::            2.732804666812
                                        Core Energy ::         -299.567979157577
                                          XC Energy ::          -16.227189041387
                                     Coulomb Energy ::          147.181623792037
                       Total Pseudopotential Energy ::         -396.961043505191
                       Local Pseudopotential Energy ::         -362.648291121960
                    Nonlocal Pseudopotential Energy ::          -34.312752383230
                                        Confinement ::            0.863409549921

 Orbital energies  State     Spin  L     Occupation   Energy[a.u.]    Energy[eV]

                       1    alpha  0          1.000      -4.172666   -113.544030
                       2    alpha  0          1.000      -0.181431     -4.936983
                       1     beta  0          1.000      -4.140640   -112.672541
                       2     beta  0          1.000      -0.176372     -4.799339

                       1    alpha  1          3.000      -2.578739    -70.171064
                       1     beta  1          3.000      -2.547579    -69.323162

                       1    alpha  2          4.350      -0.327039     -8.899191
                       1     beta  2          3.650      -0.300569     -8.178887


 Total Electron Density at R=0:                                         0.030422

 Guess for atomic kind: Ni_b

 Electronic structure
    Total number of core electrons                                         10.00
    Total number of valence electrons                                      18.00
    Total number of electrons                                              28.00
    Multiplicity                                                         doublet
    Alpha Electrons
    S   [  1.00  1.00] 1.00  1.00
    P   [  3.00] 3.00
    D      4.25
    Beta Electrons
    S   [  1.00  1.00] 1.00  1.00
    P   [  3.00] 3.00
    D      3.75


 *******************************************************************************
                  Iteration          Convergence                     Energy [au]
 *******************************************************************************
                          1         1.51687                    -167.065012761055
                          2         14.9817                    -156.620431300845
                          3         2.25575                    -168.317311438693
                          4        0.189210                    -168.607926092750
                          5        0.708658E-01                -168.610773319290
                          6        0.122256E-01                -168.611238205502
                          7        0.598421E-02                -168.611272268995
                          8        0.528277E-02                -168.611272438110
                          9        0.104644E-02                -168.611275321653
                         10        0.260234E-02                -168.611274926630
                         11        0.975322E-03                -168.611275328217
                         12        0.161067E-03                -168.611275447773
                         13        0.147413E-03                -168.611275446839
                         14        0.115114E-03                -168.611275449434
                         15        0.167217E-03                -168.611275445436
                         16        0.255374E-04                -168.611275450531
                         17        0.418369E-04                -168.611275450414
                         18        0.393709E-04                -168.611275450477
                         19        0.239931E-04                -168.611275450542
                         20        0.173885E-04                -168.611275450557
                         21        0.851368E-05                -168.611275450578
                         22        0.849928E-05                -168.611275450580
                         23        0.544937E-05                -168.611275450584
                         24        0.540003E-05                -168.611275450586
                         25        0.613371E-05                -168.611275450584
                         26        0.311593E-06                -168.611275450588

 Energy components [Hartree]           Total Energy ::         -168.611275450588
                                        Band Energy ::          -26.568680144499
                                     Kinetic Energy ::           97.303659243130
                                   Potential Energy ::         -265.914934693718
                                      Virial (-V/T) ::            2.732835915546
                                        Core Energy ::         -299.566189183323
                                          XC Energy ::          -16.224592878785
                                     Coulomb Energy ::          147.179506611520
                       Total Pseudopotential Energy ::         -396.956189041778
                       Local Pseudopotential Energy ::         -362.645043136649
                    Nonlocal Pseudopotential Energy ::          -34.311145905129
                                        Confinement ::            0.863406153250

 Orbital energies  State     Spin  L     Occupation   Energy[a.u.]    Energy[eV]

                       1    alpha  0          1.000      -4.168335   -113.426177
                       2    alpha  0          1.000      -0.180730     -4.917906
                       1     beta  0          1.000      -4.145459   -112.803683
                       2     beta  0          1.000      -0.177117     -4.819606

                       1    alpha  1          3.000      -2.574525    -70.056390
                       1     beta  1          3.000      -2.552268    -69.450746

                       1    alpha  2          4.250      -0.323446     -8.801405
                       1     beta  2          3.750      -0.304537     -8.286881


 Total Electron Density at R=0:                                         0.030429

 Spin 1
 Re-scaling the density matrix to get the right number of electrons for spin 1
                  # Electrons              Trace(P)               Scaling factor
                        297.600             297.600                        1.000

 Spin 2
 Re-scaling the density matrix to get the right number of electrons for spin 2
                  # Electrons              Trace(P)               Scaling factor
                        278.400             278.400                        1.000


 SCF WAVEFUNCTION OPTIMIZATION

  Step     Update method      Time    Convergence         Total energy    Change
  ------------------------------------------------------------------------------
     1 NoMix/Diag. 0.40E+00    1.5     0.87318318     -5426.4441344177 -5.43E+03
     2 Broy./Diag. 0.40E+00    1.5     0.10632441     -5344.1139172730  8.23E+01
[...]
   129 Broy./Diag. 0.40E+00    1.5     0.02773458     -5417.5575948414 -3.32E-03
   130 Broy./Diag. 0.40E+00    1.5     0.05436238     -5417.5323691775  2.52E-02
   131 Broy./Diag. 0.40E+00    1.5     0.01353960     -5417.0965440020  4.36E-01
   132 Broy./Diag. 0.40E+00    1.5     0.02519606     -5417.2205312023 -1.24E-01
   133 Broy./Diag. 0.40E+00    1.5     0.02867590     -5417.4382573063 -2.18E-01
   134 Broy./Diag. 0.40E+00    1.5     0.04074518     -5417.3832682820  5.50E-02
   135 Broy./Diag. 0.40E+00    1.5     0.04207619     -5417.3850787456 -1.81E-03
   136 Broy./Diag. 0.40E+00    1.5     0.01459835     -5417.0136731937  3.71E-01
   137 Broy./Diag. 0.40E+00    1.5     0.01839396     -5416.9640979274  4.96E-02
   138 Broy./Diag. 0.40E+00    1.5     0.01641745     -5417.0424581991 -7.84E-02
   139 Broy./Diag. 0.40E+00    1.5     0.09979601     -5417.2925839795 -2.50E-01
   140 Broy./Diag. 0.40E+00    1.5     0.13269616     -5417.4856572209 -1.93E-01
   141 Broy./Diag. 0.40E+00    1.5     0.12026175     -5417.8145986043 -3.29E-01
   142 Broy./Diag. 0.40E+00    1.5     0.08485291     -5417.3939783034  4.21E-01
   143 Broy./Diag. 0.40E+00    1.5     0.09344246     -5418.0203694283 -6.26E-01
   144 Broy./Diag. 0.40E+00    1.5     0.08178700     -5417.8645917441  1.56E-01
   145 Broy./Diag. 0.40E+00    1.5     0.13082104     -5417.7317953971  1.33E-01
   146 Broy./Diag. 0.40E+00    1.5     0.05383610     -5417.8603342956 -1.29E-01
   147 Broy./Diag. 0.40E+00    1.5     0.03787047     -5417.6793619163  1.81E-01
   148 Broy./Diag. 0.40E+00    1.5     0.05300653     -5417.9526689208 -2.73E-01
   149 Broy./Diag. 0.40E+00    1.5     0.03460969     -5417.6924550549  2.60E-01
   150 Broy./Diag. 0.40E+00    1.5     0.01630612     -5417.6235128027  6.89E-02
   151 Broy./Diag. 0.40E+00    1.5     0.01239626     -5417.5617150869  6.18E-02
   152 Broy./Diag. 0.40E+00    1.5     0.03497482     -5417.5712082349 -9.49E-03
   153 Broy./Diag. 0.40E+00    1.5     0.01128564     -5418.0873111497 -5.16E-01
   154 Broy./Diag. 0.40E+00    1.5     0.02173255     -5418.0350711310  5.22E-02
   155 Broy./Diag. 0.40E+00    1.5     0.01046724     -5417.8047604518  2.30E-01
   156 Broy./Diag. 0.40E+00    1.5     0.01503472     -5417.7653201127  3.94E-02
   157 Broy./Diag. 0.40E+00    1.5     0.02357578     -5417.6452053654  1.20E-01
   158 Broy./Diag. 0.40E+00    1.5     0.04953924     -5417.2672681051  3.78E-01
   159 Broy./Diag. 0.40E+00    1.5     0.04024858     -5417.8744949759 -6.07E-01
   160 Broy./Diag. 0.40E+00    1.5     0.05559923     -5417.5665750568  3.08E-01
   161 Broy./Diag. 0.40E+00    1.5     0.05221848     -5417.5845837462 -1.80E-02
   162 Broy./Diag. 0.40E+00    1.5     0.03328643     -5416.3988307163  1.19E+00
   163 Broy./Diag. 0.40E+00    1.5     0.03037826     -5416.4170009656 -1.82E-02
   164 Broy./Diag. 0.40E+00    1.5     0.03293979     -5416.5730113291 -1.56E-01
   165 Broy./Diag. 0.40E+00    1.5     0.05326865     -5416.7261233422 -1.53E-01
   166 Broy./Diag. 0.40E+00    1.5     0.02326057     -5416.3572424301  3.69E-01
   167 Broy./Diag. 0.40E+00    1.5     0.03363657     -5416.4587861131 -1.02E-01
   168 Broy./Diag. 0.40E+00    1.5     0.04517108     -5417.0962006709 -6.37E-01
   169 Broy./Diag. 0.40E+00    1.5     0.03968166     -5417.6244587077 -5.28E-01
   170 Broy./Diag. 0.40E+00    1.5     0.02510262     -5416.8130186873  8.11E-01
   171 Broy./Diag. 0.40E+00    1.5     0.09850821     -5417.1924690192 -3.79E-01
   172 Broy./Diag. 0.40E+00    1.5     0.04548688     -5416.8554431704  3.37E-01
   173 Broy./Diag. 0.40E+00    1.5     0.04737468     -5416.6764965507  1.79E-01
   174 Broy./Diag. 0.40E+00    1.6     0.07410620     -5416.6679813327  8.52E-03
   175 Broy./Diag. 0.40E+00    1.5     0.04986979     -5417.1125315440 -4.45E-01
   176 Broy./Diag. 0.40E+00    1.5     0.05475120     -5417.5041839989 -3.92E-01
   177 Broy./Diag. 0.40E+00    1.5     0.02565592     -5417.4455637888  5.86E-02
   178 Broy./Diag. 0.40E+00    1.5     0.06216342     -5417.5432140832 -9.77E-02
   179 Broy./Diag. 0.40E+00    1.5     0.11397918     -5416.7342705233  8.09E-01
   180 Broy./Diag. 0.40E+00    1.5     0.13453132     -5417.5510366976 -8.17E-01
   181 Broy./Diag. 0.40E+00    1.5     0.03436751     -5417.0713615880  4.80E-01
   182 Broy./Diag. 0.40E+00    1.5     0.07452506     -5417.0811060814 -9.74E-03
   183 Broy./Diag. 0.40E+00    1.5     0.07257675     -5416.5587107499  5.22E-01
   184 Broy./Diag. 0.40E+00    1.5     0.03067906     -5417.5906083028 -1.03E+00
   185 Broy./Diag. 0.40E+00    1.5     0.05718345     -5417.5823878015  8.22E-03
   186 Broy./Diag. 0.40E+00    1.5     0.05092227     -5418.2932700131 -7.11E-01
   187 Broy./Diag. 0.40E+00    1.5     0.03291645     -5417.9165550061  3.77E-01
   188 Broy./Diag. 0.40E+00    1.5     0.04637354     -5417.5362474578  3.80E-01
   189 Broy./Diag. 0.40E+00    1.5     0.02230213     -5417.1907883259  3.45E-01
   190 Broy./Diag. 0.40E+00    1.5     0.05394905     -5417.0184989745  1.72E-01
   191 Broy./Diag. 0.40E+00    1.5     0.10035988     -5417.3450949032 -3.27E-01
   192 Broy./Diag. 0.40E+00    1.5     0.11775687     -5417.1448891289  2.00E-01
   193 Broy./Diag. 0.40E+00    1.5     0.06377131     -5417.5557232622 -4.11E-01
   194 Broy./Diag. 0.40E+00    1.5     0.09439445     -5418.3096921762 -7.54E-01
   195 Broy./Diag. 0.40E+00    1.5     0.27026047     -5419.3370554107 -1.03E+00
   196 Broy./Diag. 0.40E+00    1.5     0.07551304     -5417.2725041140  2.06E+00
   197 Broy./Diag. 0.40E+00    1.5     0.03373654     -5417.8154382280 -5.43E-01
   198 Broy./Diag. 0.40E+00    1.5     0.08025479     -5417.5866065168  2.29E-01
   199 Broy./Diag. 0.40E+00    1.5     0.06401078     -5418.5183849296 -9.32E-01
   200 Broy./Diag. 0.40E+00    1.5     0.05865871     -5418.3528454575  1.66E-01
   201 Broy./Diag. 0.40E+00    1.5     0.04606274     -5417.6046766319  7.48E-01
   202 Broy./Diag. 0.40E+00    1.5     0.16593931     -5417.9593906811 -3.55E-01
   203 Broy./Diag. 0.40E+00    1.5     0.09623359     -5418.7289564271 -7.70E-01
   204 Broy./Diag. 0.40E+00    1.5     0.16737561     -5419.5540348734 -8.25E-01
   205 Broy./Diag. 0.40E+00    1.5     0.11466760     -5419.9161213783 -3.62E-01
   206 Broy./Diag. 0.40E+00    1.5     0.10541816     -5418.8533945409  1.06E+00
   207 Broy./Diag. 0.40E+00    1.5     0.12281258     -5417.9710683459  8.82E-01
   208 Broy./Diag. 0.40E+00    1.5     0.12252966     -5418.2961484182 -3.25E-01
   209 Broy./Diag. 0.40E+00    1.5     0.10942416     -5418.6559908356 -3.60E-01
   210 Broy./Diag. 0.40E+00    1.5     0.09667920     -5418.6065769867  4.94E-02
   211 Broy./Diag. 0.40E+00    1.5     0.14322626     -5418.8940747927 -2.87E-01
   212 Broy./Diag. 0.40E+00    1.5     0.21758292     -5418.5333434780  3.61E-01
   213 Broy./Diag. 0.40E+00    1.5     0.26677070     -5417.7641519946  7.69E-01
   214 Broy./Diag. 0.40E+00    1.5     0.13817969     -5417.6367285443  1.27E-01
   215 Broy./Diag. 0.40E+00    1.5     0.09385555     -5417.6714727345 -3.47E-02
   216 Broy./Diag. 0.40E+00    1.5     0.04007026     -5417.8572066121 -1.86E-01
   217 Broy./Diag. 0.40E+00    1.5     0.04803600     -5417.7930485300  6.42E-02
   218 Broy./Diag. 0.40E+00    1.5     0.05670844     -5417.9301999826 -1.37E-01
   219 Broy./Diag. 0.40E+00    1.5     0.05989795     -5417.8239680121  1.06E-01
   220 Broy./Diag. 0.40E+00    1.5     0.13992887     -5417.9995358298 -1.76E-01
   221 Broy./Diag. 0.40E+00    1.5     0.03056461     -5417.6327228101  3.67E-01
   222 Broy./Diag. 0.40E+00    1.5     0.02341010     -5417.5979681316  3.48E-02
   223 Broy./Diag. 0.40E+00    1.5     0.02321787     -5417.5594451994  3.85E-02
   224 Broy./Diag. 0.40E+00    1.5     0.12127868     -5417.4329485860  1.26E-01
   225 Broy./Diag. 0.40E+00    1.5     0.03230684     -5416.9334831286  4.99E-01
   226 Broy./Diag. 0.40E+00    1.5     0.08061191     -5416.9525097747 -1.90E-02
   227 Broy./Diag. 0.40E+00    1.5     0.03926533     -5417.9386025459 -9.86E-01
   228 Broy./Diag. 0.40E+00    1.5     0.03352760     -5417.2699783251  6.69E-01
   229 Broy./Diag. 0.40E+00    1.5     0.03365600     -5417.1331166092  1.37E-01
   230 Broy./Diag. 0.40E+00    1.5     0.11676308     -5417.1420350932 -8.92E-03
   231 Broy./Diag. 0.40E+00    1.5     0.03527605     -5417.1443784195 -2.34E-03
   232 Broy./Diag. 0.40E+00    1.5     0.04483687     -5417.2726653463 -1.28E-01
   233 Broy./Diag. 0.40E+00    1.5     0.15286588     -5417.4110733337 -1.38E-01
   234 Broy./Diag. 0.40E+00    1.5     0.21553129     -5416.0706510629  1.34E+00
   235 Broy./Diag. 0.40E+00    1.5     0.14218137     -5417.0522796523 -9.82E-01
   236 Broy./Diag. 0.40E+00    1.5     0.04559031     -5416.9038009150  1.48E-01
   237 Broy./Diag. 0.40E+00    1.5     0.07175277     -5416.7332394789  1.71E-01
   238 Broy./Diag. 0.40E+00    1.5     0.10467085     -5416.4985883366  2.35E-01
   239 Broy./Diag. 0.40E+00    1.5     0.05280199     -5416.0868749774  4.12E-01
   240 Broy./Diag. 0.40E+00    1.5     0.34513877     -5415.9289026072  1.58E-01
   241 Broy./Diag. 0.40E+00    1.5     0.37671369     -5414.0556796822  1.87E+00
   242 Broy./Diag. 0.40E+00    1.5     0.09457591     -5415.5233737290 -1.47E+00
   243 Broy./Diag. 0.40E+00    1.5     0.34603611     -5416.0402555220 -5.17E-01
   244 Broy./Diag. 0.40E+00    1.5     0.31488623     -5415.6283360828  4.12E-01
   245 Broy./Diag. 0.40E+00    1.5     0.31089785     -5416.7366184211 -1.11E+00
   246 Broy./Diag. 0.40E+00    1.5     0.32164647     -5418.2246582387 -1.49E+00
   247 Broy./Diag. 0.40E+00    1.5     0.35369668     -5417.7771451857  4.48E-01
   248 Broy./Diag. 0.40E+00    1.5     0.18589430     -5419.2204738699 -1.44E+00
   249 Broy./Diag. 0.40E+00    1.5     0.16974346     -5417.4704071297  1.75E+00
   250 Broy./Diag. 0.40E+00    1.5     0.11284983     -5417.7180423611 -2.48E-01
   251 Broy./Diag. 0.40E+00    1.5     0.07599858     -5418.3357411206 -6.18E-01
   252 Broy./Diag. 0.40E+00    1.5     0.06326725     -5417.8699186284  4.66E-01
   253 Broy./Diag. 0.40E+00    1.5     0.12771663     -5418.5449268503 -6.75E-01
   254 Broy./Diag. 0.40E+00    1.5     0.11784414     -5417.2371226897  1.31E+00
   255 Broy./Diag. 0.40E+00    1.5     0.06493572     -5417.5805158726 -3.43E-01
   256 Broy./Diag. 0.40E+00    1.5     0.01407521     -5416.9970035912  5.84E-01
   257 Broy./Diag. 0.40E+00    1.5     0.10344587     -5417.0933268081 -9.63E-02
   258 Broy./Diag. 0.40E+00    1.5     0.05022693     -5418.0959466859 -1.00E+00
   259 Broy./Diag. 0.40E+00    1.5     0.03313970     -5417.8925795610  2.03E-01
   260 Broy./Diag. 0.40E+00    1.5     0.03882094     -5418.0591874724 -1.67E-01
   261 Broy./Diag. 0.40E+00    1.5     0.00909886     -5417.4229954023  6.36E-01
   262 Broy./Diag. 0.40E+00    1.5     0.08998440     -5417.4188616436  4.13E-03
   263 Broy./Diag. 0.40E+00    1.5     0.14114800     -5417.2408869762  1.78E-01
   264 Broy./Diag. 0.40E+00    1.5     0.01760622     -5416.3480537938  8.93E-01
   265 Broy./Diag. 0.40E+00    1.5     0.02873721     -5416.4410329617 -9.30E-02
   266 Broy./Diag. 0.40E+00    1.5     0.01791946     -5416.6152537725 -1.74E-01
   267 Broy./Diag. 0.40E+00    1.5     0.06745155     -5416.4819423667  1.33E-01
   268 Broy./Diag. 0.40E+00    1.5     0.12181221     -5416.1465426016  3.35E-01
   269 Broy./Diag. 0.40E+00    1.5     0.12562661     -5417.5220145908 -1.38E+00
   270 Broy./Diag. 0.40E+00    1.5     0.15892406     -5417.6046620663 -8.26E-02
   271 Broy./Diag. 0.40E+00    1.5     0.07865392     -5416.9820698290  6.23E-01
   272 Broy./Diag. 0.40E+00    1.5     0.31863231     -5416.4630522348  5.19E-01
   273 Broy./Diag. 0.40E+00    1.5     0.22870492     -5417.2975589222 -8.35E-01
   274 Broy./Diag. 0.40E+00    1.5     0.06614105     -5417.3310825738 -3.35E-02
   275 Broy./Diag. 0.40E+00    1.5     0.09695892     -5417.0763156506  2.55E-01
   276 Broy./Diag. 0.40E+00    1.5     0.04888553     -5417.4655491505 -3.89E-01
   277 Broy./Diag. 0.40E+00    1.5     0.04250398     -5417.7185731641 -2.53E-01
   278 Broy./Diag. 0.40E+00    1.5     0.13051481     -5418.0775002330 -3.59E-01
   279 Broy./Diag. 0.40E+00    1.5     0.12197760     -5418.3299862524 -2.52E-01
   280 Broy./Diag. 0.40E+00    1.5     0.10286759     -5418.0369494024  2.93E-01
   281 Broy./Diag. 0.40E+00    1.5     0.08504822     -5417.7036824510  3.33E-01
   282 Broy./Diag. 0.40E+00    1.5     0.28971057     -5418.1205581940 -4.17E-01
   283 Broy./Diag. 0.40E+00    1.5     0.38517180     -5417.5037655046  6.17E-01
   284 Broy./Diag. 0.40E+00    1.5     0.07280742     -5417.9214369682 -4.18E-01
   285 Broy./Diag. 0.40E+00    1.5     0.03620617     -5418.3844576773 -4.63E-01
   286 Broy./Diag. 0.40E+00    1.5     0.04659339     -5418.4208819901 -3.64E-02
   287 Broy./Diag. 0.40E+00    1.5     0.08816494     -5418.1406537481  2.80E-01
   288 Broy./Diag. 0.40E+00    1.5     0.12435257     -5417.9646401129  1.76E-01
   289 Broy./Diag. 0.40E+00    1.5     0.07061742     -5417.8905257154  7.41E-02
   290 Broy./Diag. 0.40E+00    1.5     0.12242804     -5417.9725967776 -8.21E-02
   291 Broy./Diag. 0.40E+00    1.5     0.02317663     -5418.3365095087 -3.64E-01
   292 Broy./Diag. 0.40E+00    1.5     0.24182085     -5418.2504202625  8.61E-02
   293 Broy./Diag. 0.40E+00    1.5     0.29826544     -5418.9848485264 -7.34E-01
   294 Broy./Diag. 0.40E+00    1.5     0.05784328     -5417.9251642822  1.06E+00
   295 Broy./Diag. 0.40E+00    1.5     0.07760285     -5418.1756719691 -2.51E-01
   296 Broy./Diag. 0.40E+00    1.5     0.12452190     -5418.2017242310 -2.61E-02
   297 Broy./Diag. 0.40E+00    1.5     0.15583764     -5418.2207793836 -1.91E-02
   298 Broy./Diag. 0.40E+00    1.5     0.18349398     -5418.1499967655  7.08E-02
   299 Broy./Diag. 0.40E+00    1.5     0.25235370     -5418.0403517341  1.10E-01
   300 Broy./Diag. 0.40E+00    1.5     0.21828757     -5417.7497422668  2.91E-01
   301 Broy./Diag. 0.40E+00    1.5     0.18546389     -5417.7161011259  3.36E-02
   302 Broy./Diag. 0.40E+00    1.5     0.22481457     -5416.7971098240  9.19E-01
   303 Broy./Diag. 0.40E+00    1.5     0.16315939     -5418.4959494392 -1.70E+00
   304 Broy./Diag. 0.40E+00    1.5     0.20598630     -5417.9303951186  5.66E-01
   305 Broy./Diag. 0.40E+00    1.5     0.10875864     -5417.7565369309  1.74E-01
   306 Broy./Diag. 0.40E+00    1.5     0.15161847     -5418.2228231419 -4.66E-01
   307 Broy./Diag. 0.40E+00    1.5     0.19905013     -5418.2351204915 -1.23E-02
   308 Broy./Diag. 0.40E+00    1.5     0.20009263     -5417.6832726739  5.52E-01
   309 Broy./Diag. 0.40E+00    1.5     0.05091499     -5418.0032250970 -3.20E-01
   310 Broy./Diag. 0.40E+00    1.5     0.11905927     -5418.1839705600 -1.81E-01
   311 Broy./Diag. 0.40E+00    1.5     0.07026149     -5418.0143025839  1.70E-01
   312 Broy./Diag. 0.40E+00    1.5     0.24306049     -5417.9423795480  7.19E-02
   313 Broy./Diag. 0.40E+00    1.5     0.25696786     -5418.3538235252 -4.11E-01
   314 Broy./Diag. 0.40E+00    1.5     0.19442562     -5417.7004732559  6.53E-01
   315 Broy./Diag. 0.40E+00    1.5     0.08892553     -5417.3467867112  3.54E-01
   316 Broy./Diag. 0.40E+00    1.5     0.32504205     -5416.7757188649  5.71E-01
   317 Broy./Diag. 0.40E+00    1.5     0.22149381     -5419.9108651412 -3.14E+00
   318 Broy./Diag. 0.40E+00    1.5     0.33392018     -5418.3321572490  1.58E+00
   319 Broy./Diag. 0.40E+00    1.5     0.07223440     -5419.5431763700 -1.21E+00
   320 Broy./Diag. 0.40E+00    1.5     0.13741975     -5418.8296043908  7.14E-01
   321 Broy./Diag. 0.40E+00    1.5     0.15995512     -5419.1138485067 -2.84E-01
   322 Broy./Diag. 0.40E+00    1.5     0.22352643     -5419.0136260759  1.00E-01
   323 Broy./Diag. 0.40E+00    1.5     0.07910141     -5417.6115323934  1.40E+00
   324 Broy./Diag. 0.40E+00    1.5     0.11390993     -5417.3246292718  2.87E-01
   325 Broy./Diag. 0.40E+00    1.5     0.47214645     -5417.4086397119 -8.40E-02
   326 Broy./Diag. 0.40E+00    1.5     0.13231007     -5418.0345292510 -6.26E-01
   327 Broy./Diag. 0.40E+00    1.5     0.10594976     -5418.4069463708 -3.72E-01
   328 Broy./Diag. 0.40E+00    1.5     0.14415447     -5417.9578434315  4.49E-01
   329 Broy./Diag. 0.40E+00    1.5     0.25362948     -5418.7196940621 -7.62E-01
   330 Broy./Diag. 0.40E+00    1.5     0.29836334     -5416.6185824698  2.10E+00
   331 Broy./Diag. 0.40E+00    1.5     0.14188173     -5416.8734002641 -2.55E-01
   332 Broy./Diag. 0.40E+00    1.5     0.21291448     -5417.7691138329 -8.96E-01
   333 Broy./Diag. 0.40E+00    1.5     0.47947248     -5417.2622150789  5.07E-01
   334 Broy./Diag. 0.40E+00    1.5     0.46987710     -5418.1020861184 -8.40E-01
   335 Broy./Diag. 0.40E+00    1.5     0.26630164     -5417.1776516927  9.24E-01
   336 Broy./Diag. 0.40E+00    1.5     0.17324345     -5416.7135371950  4.64E-01
   337 Broy./Diag. 0.40E+00    1.5     0.15709577     -5417.2626249610 -5.49E-01
   338 Broy./Diag. 0.40E+00    1.5     0.41209201     -5416.6285294172  6.34E-01
   339 Broy./Diag. 0.40E+00    1.5     0.57606801     -5418.4003724733 -1.77E+00
   340 Broy./Diag. 0.40E+00    1.5     0.30258342     -5418.7150292526 -3.15E-01
   341 Broy./Diag. 0.40E+00    1.5     0.23627947     -5417.5750448658  1.14E+00
   342 Broy./Diag. 0.40E+00    1.5     0.16655593     -5417.9325730435 -3.58E-01
   343 Broy./Diag. 0.40E+00    1.5     0.22236180     -5418.0883579489 -1.56E-01
   344 Broy./Diag. 0.40E+00    1.5     0.10534988     -5418.0322798476  5.61E-02
   345 Broy./Diag. 0.40E+00    1.5     0.17523641     -5418.9243318199 -8.92E-01
   346 Broy./Diag. 0.40E+00    1.5     0.09832590     -5417.2053699064  1.72E+00
   347 Broy./Diag. 0.40E+00    1.5     0.06442115     -5417.7142445695 -5.09E-01
   348 Broy./Diag. 0.40E+00    1.5     0.37573713     -5417.7623433778 -4.81E-02
   349 Broy./Diag. 0.40E+00    1.5     0.10205713     -5416.2223826542  1.54E+00
   350 Broy./Diag. 0.40E+00    1.5     0.20402302     -5416.7264442036 -5.04E-01
   351 Broy./Diag. 0.40E+00    1.5     0.26940439     -5417.1908403590 -4.64E-01
   352 Broy./Diag. 0.40E+00    1.5     0.08057530     -5415.8269701943  1.36E+00
   353 Broy./Diag. 0.40E+00    1.5     0.08154058     -5415.3200937791  5.07E-01
   354 Broy./Diag. 0.40E+00    1.5     0.14491674     -5415.5657858072 -2.46E-01
   355 Broy./Diag. 0.40E+00    1.5     0.17911101     -5415.9580961450 -3.92E-01
   356 Broy./Diag. 0.40E+00    1.5     0.15353600     -5416.0186571257 -6.06E-02
   357 Broy./Diag. 0.40E+00    1.5     0.18964708     -5417.0670933266 -1.05E+00
   358 Broy./Diag. 0.40E+00    1.5     0.42914021     -5416.4709436196  5.96E-01
   359 Broy./Diag. 0.40E+00    1.5     0.35956182     -5416.9881001121 -5.17E-01
   360 Broy./Diag. 0.40E+00    1.5     0.27780459     -5417.7326725668 -7.45E-01
   361 Broy./Diag. 0.40E+00    1.5     0.23250294     -5418.8984765430 -1.17E+00
   362 Broy./Diag. 0.40E+00    1.5     0.19339492     -5418.6041030866  2.94E-01
   363 Broy./Diag. 0.40E+00    1.6     0.18885726     -5418.4744412310  1.30E-01
   364 Broy./Diag. 0.40E+00    1.5     0.20620813     -5418.1414145132  3.33E-01
   365 Broy./Diag. 0.40E+00    1.5     0.21252526     -5417.5921930093  5.49E-01
   366 Broy./Diag. 0.40E+00    1.5     0.17640062     -5418.0265081602 -4.34E-01
   367 Broy./Diag. 0.40E+00    1.5     0.06416252     -5418.3058365675 -2.79E-01
   368 Broy./Diag. 0.40E+00    1.5     0.29861835     -5419.0982818276 -7.92E-01
   369 Broy./Diag. 0.40E+00    1.5     0.33418066     -5420.1944421302 -1.10E+00
   370 Broy./Diag. 0.40E+00    1.5     0.22009379     -5419.4796289805  7.15E-01
   371 Broy./Diag. 0.40E+00    1.5     0.22585118     -5418.4709469851  1.01E+00
   372 Broy./Diag. 0.40E+00    1.5     0.15999699     -5419.6076841948 -1.14E+00
   373 Broy./Diag. 0.40E+00    1.5     0.13973466     -5422.1788998919 -2.57E+00
   374 Broy./Diag. 0.40E+00    1.5     0.41209445     -5423.1278146807 -9.49E-01
