      60
 i =        1, E =     -7949.3259976516
 Pt        -0.0006287331        0.0002290483        0.0018404168
 Pt        -0.0004209478        0.0000914495        0.0009880811
 Pt         0.0005906361       -0.0000420118        0.0013864369
 Pt         0.0004538592       -0.0001913509        0.0016062451
 Pt         0.0002230498       -0.0003127443       -0.0000462742
 Pt         0.0005537666       -0.0005977706       -0.0006543559
 Pt         0.0008424668        0.0002916010       -0.0010749026
 Pt         0.0012361081        0.0005441144       -0.0010386870
 Pt        -0.0002497939        0.0007646780       -0.0003831098
 Pt        -0.0007332862        0.0006607770       -0.0003189602
 Pt        -0.0007657707       -0.0005928132       -0.0014308269
 Pt        -0.0015286950       -0.0003381049       -0.0014958719
 Ni        -0.0001775614       -0.0005837817        0.0002840484
 Ni        -0.0006151478       -0.0010753740        0.0002471771
 Ni         0.0000000000        0.0000000000        0.0000000000
 Ni         0.0000000000        0.0000000000        0.0000000000
 Pt         0.0000000000        0.0000000000        0.0000000000
 Pt         0.0000000000        0.0000000000        0.0000000000
 Ni         0.0000000000        0.0000000000        0.0000000000
 Ni         0.0000000000        0.0000000000        0.0000000000
 Pt         0.0000000000        0.0000000000        0.0000000000
 Pt         0.0000000000        0.0000000000        0.0000000000
 Pt         0.0000000000        0.0000000000        0.0000000000
 Pt         0.0000000000        0.0000000000        0.0000000000
 Pt         0.0000000000        0.0000000000        0.0000000000
 Pt         0.0000000000        0.0000000000        0.0000000000
 Ni         0.0000000000        0.0000000000        0.0000000000
 Pt         0.0000000000        0.0000000000        0.0000000000
 Pt         0.0000000000        0.0000000000        0.0000000000
 Pt         0.0000000000        0.0000000000        0.0000000000
 Ni         0.0000000000        0.0000000000        0.0000000000
 Pt         0.0000000000        0.0000000000        0.0000000000
 Ni         0.0000000000        0.0000000000        0.0000000000
 Pt         0.0000000000        0.0000000000        0.0000000000
 Pt         0.0000000000        0.0000000000        0.0000000000
 Pt         0.0000000000        0.0000000000        0.0000000000
 Pt         0.0000000000        0.0000000000        0.0000000000
 Pt         0.0000000000        0.0000000000        0.0000000000
 Pt         0.0000000000        0.0000000000        0.0000000000
 Pt         0.0000000000        0.0000000000        0.0000000000
 Ni         0.0000000000        0.0000000000        0.0000000000
 Pt         0.0000000000        0.0000000000        0.0000000000
 Ni         0.0000000000        0.0000000000        0.0000000000
 Pt         0.0000000000        0.0000000000        0.0000000000
 Ni         0.0000000000        0.0000000000        0.0000000000
 Ni         0.0000000000        0.0000000000        0.0000000000
 Ni         0.0000000000        0.0000000000        0.0000000000
 Ni         0.0000000000        0.0000000000        0.0000000000
 Pt         0.0000000000        0.0000000000        0.0000000000
 Pt         0.0000000000        0.0000000000        0.0000000000
 Pt         0.0005073156        0.0007028329        0.0002357682
 Pt         0.0001395941        0.0004601530        0.0002466012
 Pt        -0.0012785295        0.0000965194        0.0011908531
 Pt        -0.0010491743       -0.0000277583        0.0012493845
 Pt        -0.0008157406       -0.0007834576        0.0003864100
 Pt        -0.0005647138       -0.0005957998        0.0001023109
 Pt        -0.0007395302       -0.0003209471       -0.0014105453
 Pt        -0.0006591243       -0.0004467113       -0.0015325735
 Pt         0.0001364262        0.0002097808       -0.0009515463
 Pt         0.0001683930        0.0002482348       -0.0018418249
      60
 i =        2, E =     -7949.3262915587
 Pt        -0.0003414463       -0.0001746047        0.0000730270
 Pt        -0.0002161968       -0.0000562254       -0.0001554394
 Pt         0.0001155565        0.0000275356       -0.0001773362
 Pt         0.0003596976        0.0001799983       -0.0001748999
 Pt        -0.0001038134        0.0003573540       -0.0000422326
 Pt        -0.0001637130        0.0005018544        0.0000712234
 Pt         0.0000218799       -0.0001858081        0.0000042134
 Pt        -0.0001787026       -0.0003327957        0.0002460251
 Pt         0.0000033415       -0.0002577270        0.0000038916
 Pt         0.0001525741       -0.0001329662       -0.0000061381
 Pt        -0.0001713748        0.0002054821       -0.0000364672
 Pt         0.0001857911        0.0002059131       -0.0000345994
 Ni        -0.0004272237        0.0001738157       -0.0001006069
 Ni        -0.0001129347        0.0004588067       -0.0000884981
 Ni         0.0000000000        0.0000000000        0.0000000000
 Ni         0.0000000000        0.0000000000        0.0000000000
 Pt         0.0000000000        0.0000000000        0.0000000000
 Pt         0.0000000000        0.0000000000        0.0000000000
 Ni         0.0000000000        0.0000000000        0.0000000000
 Ni         0.0000000000        0.0000000000        0.0000000000
 Pt         0.0000000000        0.0000000000        0.0000000000
 Pt         0.0000000000        0.0000000000        0.0000000000
 Pt         0.0000000000        0.0000000000        0.0000000000
 Pt         0.0000000000        0.0000000000        0.0000000000
 Pt         0.0000000000        0.0000000000        0.0000000000
 Pt         0.0000000000        0.0000000000        0.0000000000
 Ni         0.0000000000        0.0000000000        0.0000000000
 Pt         0.0000000000        0.0000000000        0.0000000000
 Pt         0.0000000000        0.0000000000        0.0000000000
 Pt         0.0000000000        0.0000000000        0.0000000000
 Ni         0.0000000000        0.0000000000        0.0000000000
 Pt         0.0000000000        0.0000000000        0.0000000000
 Ni         0.0000000000        0.0000000000        0.0000000000
 Pt         0.0000000000        0.0000000000        0.0000000000
 Pt         0.0000000000        0.0000000000        0.0000000000
 Pt         0.0000000000        0.0000000000        0.0000000000
 Pt         0.0000000000        0.0000000000        0.0000000000
 Pt         0.0000000000        0.0000000000        0.0000000000
 Pt         0.0000000000        0.0000000000        0.0000000000
 Pt         0.0000000000        0.0000000000        0.0000000000
 Ni         0.0000000000        0.0000000000        0.0000000000
 Pt         0.0000000000        0.0000000000        0.0000000000
 Ni         0.0000000000        0.0000000000        0.0000000000
 Pt         0.0000000000        0.0000000000        0.0000000000
 Ni         0.0000000000        0.0000000000        0.0000000000
 Ni         0.0000000000        0.0000000000        0.0000000000
 Ni         0.0000000000        0.0000000000        0.0000000000
 Ni         0.0000000000        0.0000000000        0.0000000000
 Pt         0.0000000000        0.0000000000        0.0000000000
 Pt         0.0000000000        0.0000000000        0.0000000000
 Pt        -0.0004629316       -0.0001903123       -0.0000107047
 Pt        -0.0003917546       -0.0001974176       -0.0000420359
 Pt        -0.0002103591       -0.0001339101       -0.0001447873
 Pt        -0.0003389389       -0.0001012243        0.0001172614
 Pt        -0.0001963557        0.0003521734       -0.0001354406
 Pt        -0.0002839857        0.0002912077       -0.0000416323
 Pt        -0.0004972903        0.0000757565        0.0001267081
 Pt        -0.0005786748        0.0001312811        0.0001147877
 Pt        -0.0002239285       -0.0001922006        0.0001676026
 Pt        -0.0000363033       -0.0001695945       -0.0000301330
      60
 i =        3, E =     -7949.3263095827
 Pt         0.0000123222        0.0000741882       -0.0000887424
 Pt        -0.0000277004        0.0000252669       -0.0000820647
 Pt        -0.0000544928        0.0000234278       -0.0000830551
 Pt        -0.0000934213        0.0000019509       -0.0000451600
 Pt        -0.0000173537       -0.0000206415        0.0000047473
 Pt        -0.0000236664       -0.0000534183        0.0000252637
 Pt        -0.0000456222        0.0000483933        0.0000432884
 Pt        -0.0000457033        0.0001010636        0.0001353356
 Pt        -0.0000100207        0.0000810436       -0.0000000615
 Pt        -0.0000746122        0.0000766337        0.0000031904
 Pt         0.0000178569        0.0000081836       -0.0000151460
 Pt        -0.0000821799       -0.0000258014       -0.0000022386
 Ni        -0.0001538936       -0.0001575757       -0.0000326182
 Ni        -0.0000475926       -0.0000777592       -0.0000058542
 Ni         0.0000000000        0.0000000000        0.0000000000
 Ni         0.0000000000        0.0000000000        0.0000000000
 Pt         0.0000000000        0.0000000000        0.0000000000
 Pt         0.0000000000        0.0000000000        0.0000000000
 Ni         0.0000000000        0.0000000000        0.0000000000
 Ni         0.0000000000        0.0000000000        0.0000000000
 Pt         0.0000000000        0.0000000000        0.0000000000
 Pt         0.0000000000        0.0000000000        0.0000000000
 Pt         0.0000000000        0.0000000000        0.0000000000
 Pt         0.0000000000        0.0000000000        0.0000000000
 Pt         0.0000000000        0.0000000000        0.0000000000
 Pt         0.0000000000        0.0000000000        0.0000000000
 Ni         0.0000000000        0.0000000000        0.0000000000
 Pt         0.0000000000        0.0000000000        0.0000000000
 Pt         0.0000000000        0.0000000000        0.0000000000
 Pt         0.0000000000        0.0000000000        0.0000000000
 Ni         0.0000000000        0.0000000000        0.0000000000
 Pt         0.0000000000        0.0000000000        0.0000000000
 Ni         0.0000000000        0.0000000000        0.0000000000
 Pt         0.0000000000        0.0000000000        0.0000000000
 Pt         0.0000000000        0.0000000000        0.0000000000
 Pt         0.0000000000        0.0000000000        0.0000000000
 Pt         0.0000000000        0.0000000000        0.0000000000
 Pt         0.0000000000        0.0000000000        0.0000000000
 Pt         0.0000000000        0.0000000000        0.0000000000
 Pt         0.0000000000        0.0000000000        0.0000000000
 Ni         0.0000000000        0.0000000000        0.0000000000
 Pt         0.0000000000        0.0000000000        0.0000000000
 Ni         0.0000000000        0.0000000000        0.0000000000
 Pt         0.0000000000        0.0000000000        0.0000000000
 Ni         0.0000000000        0.0000000000        0.0000000000
 Ni         0.0000000000        0.0000000000        0.0000000000
 Ni         0.0000000000        0.0000000000        0.0000000000
 Ni         0.0000000000        0.0000000000        0.0000000000
 Pt         0.0000000000        0.0000000000        0.0000000000
 Pt         0.0000000000        0.0000000000        0.0000000000
 Pt        -0.0002411968        0.0000350093       -0.0000546855
 Pt        -0.0002928924        0.0000354010       -0.0000752274
 Pt        -0.0002653753        0.0000134061       -0.0000933956
 Pt        -0.0002746411       -0.0000078633        0.0000042579
 Pt        -0.0001735702       -0.0000432404       -0.0000174446
 Pt        -0.0001874174       -0.0000262132        0.0000197478
 Pt        -0.0002164776       -0.0000241199        0.0000201412
 Pt        -0.0002305131       -0.0000563876        0.0000075048
 Pt        -0.0001908251        0.0000112105        0.0001230731
 Pt        -0.0002191319        0.0000208408        0.0000893474
      60
 i =        4, E =     -7949.3263178683
 Pt         0.0000656336        0.0000624255       -0.0000475257
 Pt         0.0000538237        0.0000453056        0.0000347446
 Pt        -0.0001101312        0.0000294935        0.0000063091
 Pt        -0.0001514539       -0.0000128111        0.0000046767
 Pt        -0.0000192881       -0.0000576716        0.0000229779
 Pt        -0.0000064053       -0.0000977513        0.0000157037
 Pt        -0.0000665131        0.0000789879        0.0000468327
 Pt        -0.0000265546        0.0001129903        0.0000077403
 Pt        -0.0000435719        0.0000901095        0.0000021233
 Pt        -0.0000852019        0.0000469831        0.0000055456
 Pt        -0.0000006721       -0.0000175036        0.0000143773
 Pt        -0.0000740486       -0.0000074207        0.0000265556
 Ni        -0.0000582799       -0.0001101095        0.0000148215
 Ni         0.0000103268       -0.0001117407        0.0000053772
 Ni         0.0000000000        0.0000000000        0.0000000000
 Ni         0.0000000000        0.0000000000        0.0000000000
 Pt         0.0000000000        0.0000000000        0.0000000000
 Pt         0.0000000000        0.0000000000        0.0000000000
 Ni         0.0000000000        0.0000000000        0.0000000000
 Ni         0.0000000000        0.0000000000        0.0000000000
 Pt         0.0000000000        0.0000000000        0.0000000000
 Pt         0.0000000000        0.0000000000        0.0000000000
 Pt         0.0000000000        0.0000000000        0.0000000000
 Pt         0.0000000000        0.0000000000        0.0000000000
 Pt         0.0000000000        0.0000000000        0.0000000000
 Pt         0.0000000000        0.0000000000        0.0000000000
 Ni         0.0000000000        0.0000000000        0.0000000000
 Pt         0.0000000000        0.0000000000        0.0000000000
 Pt         0.0000000000        0.0000000000        0.0000000000
 Pt         0.0000000000        0.0000000000        0.0000000000
 Ni         0.0000000000        0.0000000000        0.0000000000
 Pt         0.0000000000        0.0000000000        0.0000000000
 Ni         0.0000000000        0.0000000000        0.0000000000
 Pt         0.0000000000        0.0000000000        0.0000000000
 Pt         0.0000000000        0.0000000000        0.0000000000
 Pt         0.0000000000        0.0000000000        0.0000000000
 Pt         0.0000000000        0.0000000000        0.0000000000
 Pt         0.0000000000        0.0000000000        0.0000000000
 Pt         0.0000000000        0.0000000000        0.0000000000
 Pt         0.0000000000        0.0000000000        0.0000000000
 Ni         0.0000000000        0.0000000000        0.0000000000
 Pt         0.0000000000        0.0000000000        0.0000000000
 Ni         0.0000000000        0.0000000000        0.0000000000
 Pt         0.0000000000        0.0000000000        0.0000000000
 Ni         0.0000000000        0.0000000000        0.0000000000
 Ni         0.0000000000        0.0000000000        0.0000000000
 Ni         0.0000000000        0.0000000000        0.0000000000
 Ni         0.0000000000        0.0000000000        0.0000000000
 Pt         0.0000000000        0.0000000000        0.0000000000
 Pt         0.0000000000        0.0000000000        0.0000000000
 Pt        -0.0000963051        0.0000472974       -0.0000513587
 Pt        -0.0001205881        0.0000536367       -0.0000516298
 Pt        -0.0001809721        0.0000424142        0.0000330112
 Pt        -0.0001674174        0.0000300437       -0.0000001668
 Pt        -0.0000894328       -0.0000807014        0.0000644249
 Pt        -0.0000679490       -0.0000626582        0.0000569426
 Pt        -0.0000612633       -0.0000205461       -0.0000476458
 Pt        -0.0000409465       -0.0000369549       -0.0000487769
 Pt        -0.0001166138        0.0000167659        0.0000390181
 Pt        -0.0001651588        0.0000100424        0.0000998567
      60
 i =        5, E =     -7949.3263212616
 Pt         0.0000098469        0.0000371462       -0.0000159847
 Pt        -0.0000213614        0.0000237665        0.0000490652
 Pt        -0.0000413342        0.0000123507        0.0000189256
 Pt        -0.0000864515        0.0000057964        0.0000039752
 Pt        -0.0000385774       -0.0000182078        0.0000168227
 Pt        -0.0000372623       -0.0000291380       -0.0000057300
 Pt        -0.0000641865        0.0000330379        0.0000209466
 Pt        -0.0000291776        0.0000458442       -0.0000527132
 Pt        -0.0000370858        0.0000336705       -0.0000012989
 Pt        -0.0000332793        0.0000239831       -0.0000013610
 Pt        -0.0000015962        0.0000118102        0.0000226374
 Pt        -0.0000338180        0.0000026892        0.0000302781
 Ni        -0.0000172797       -0.0000480765        0.0000273067
 Ni         0.0000360365       -0.0000343326        0.0000163009
 Ni         0.0000000000        0.0000000000        0.0000000000
 Ni         0.0000000000        0.0000000000        0.0000000000
 Pt         0.0000000000        0.0000000000        0.0000000000
 Pt         0.0000000000        0.0000000000        0.0000000000
 Ni         0.0000000000        0.0000000000        0.0000000000
 Ni         0.0000000000        0.0000000000        0.0000000000
 Pt         0.0000000000        0.0000000000        0.0000000000
 Pt         0.0000000000        0.0000000000        0.0000000000
 Pt         0.0000000000        0.0000000000        0.0000000000
 Pt         0.0000000000        0.0000000000        0.0000000000
 Pt         0.0000000000        0.0000000000        0.0000000000
 Pt         0.0000000000        0.0000000000        0.0000000000
 Ni         0.0000000000        0.0000000000        0.0000000000
 Pt         0.0000000000        0.0000000000        0.0000000000
 Pt         0.0000000000        0.0000000000        0.0000000000
 Pt         0.0000000000        0.0000000000        0.0000000000
 Ni         0.0000000000        0.0000000000        0.0000000000
 Pt         0.0000000000        0.0000000000        0.0000000000
 Ni         0.0000000000        0.0000000000        0.0000000000
 Pt         0.0000000000        0.0000000000        0.0000000000
 Pt         0.0000000000        0.0000000000        0.0000000000
 Pt         0.0000000000        0.0000000000        0.0000000000
 Pt         0.0000000000        0.0000000000        0.0000000000
 Pt         0.0000000000        0.0000000000        0.0000000000
 Pt         0.0000000000        0.0000000000        0.0000000000
 Pt         0.0000000000        0.0000000000        0.0000000000
 Ni         0.0000000000        0.0000000000        0.0000000000
 Pt         0.0000000000        0.0000000000        0.0000000000
 Ni         0.0000000000        0.0000000000        0.0000000000
 Pt         0.0000000000        0.0000000000        0.0000000000
 Ni         0.0000000000        0.0000000000        0.0000000000
 Ni         0.0000000000        0.0000000000        0.0000000000
 Ni         0.0000000000        0.0000000000        0.0000000000
 Ni         0.0000000000        0.0000000000        0.0000000000
 Pt         0.0000000000        0.0000000000        0.0000000000
 Pt         0.0000000000        0.0000000000        0.0000000000
 Pt        -0.0000127945        0.0000064233       -0.0000262657
 Pt        -0.0000009215        0.0000157551       -0.0000162207
 Pt        -0.0000285539        0.0000050788        0.0000610109
 Pt        -0.0000012126        0.0000111533       -0.0000076922
 Pt         0.0000006671       -0.0000211788        0.0000450814
 Pt         0.0000095108       -0.0000186222        0.0000301393
 Pt         0.0000086014       -0.0000108034       -0.0000388310
 Pt         0.0000193157       -0.0000095709       -0.0000308386
 Pt         0.0000004844        0.0000188230       -0.0000283093
 Pt        -0.0000322676        0.0000112126        0.0000427749
