 DBCSR| CPU Multiplication driver                                           XSMM (U)
 DBCSR| Multrec recursion limit                                              512 (U)
 DBCSR| Multiplication stack size                                           1000 (D)
 DBCSR| Maximum elements for images                                    UNLIMITED (U)
 DBCSR| Multiplicative factor virtual images                                   1 (U)
 DBCSR| Use multiplication densification                                       T (D)
 DBCSR| Multiplication size stacks                                             3 (U)
 DBCSR| Use memory pool for CPU allocation                                     F (U)
 DBCSR| Number of 3D layers                                               SINGLE (U)
 DBCSR| Use MPI memory allocation                                              F (U)
 DBCSR| Use RMA algorithm                                                      F (U)
 DBCSR| Use Communication thread                                               T (U)
 DBCSR| Communication thread load                                             87 (D)
 DBCSR| MPI: My process id                                                     0
 DBCSR| MPI: Number of processes                                             128
 DBCSR| OMP: Current number of threads                                         1
 DBCSR| OMP: Max number of threads                                             1
 DBCSR| Split modifier for TAS multiplication algorithm                  1.0E+00 (U)


  **** **** ******  **  PROGRAM STARTED AT               2023-02-15 13:34:38.094
 ***** ** ***  *** **   PROGRAM STARTED ON                             nid001453
 **    ****   ******    PROGRAM STARTED BY                                cahart
 ***** **    ** ** **   PROGRAM PROCESS ID                                208750
  **** **  *******  **  PROGRAM STARTED IN /mnt/lustre/a2fs-work2/work/e05/e05/c
                                           ahart/postdoc/masters/ni/archer2/slab
                                           /optimise/magnetisation/scf_1e-4_temp
                                           -2000_mos-1000_alpha-0.08_beta-1.5_pe
                                           riodic-xyz/search/0.58_0.7

 CP2K| version string:                 CP2K version 2023.1 (Development Version)
 CP2K| source code revision number:                                  git:964cd58
 CP2K| cp2kflags: omp libint fftw3 libxc elpa parallel scalapack xsmm plumed2 mk
 CP2K|            l
 CP2K| is freely available from                            https://www.cp2k.org/
 CP2K| Program compiled at                          Mon 13 Feb 17:05:14 GMT 2023
 CP2K| Program compiled on                                                  ln01
 CP2K| Program compiled for                                              ARCHER2
 CP2K| Data directory path    /work/e05/e05/cahart/cp2k/cp2k-2023.1/cp2k-2023.1-
 CP2K| Input file name                                                  cp2k.inp

 GLOBAL| Force Environment number                                              1
 GLOBAL| Basis set file name                                        BASIS_MOLOPT
 GLOBAL| Potential file name                                      GTH_POTENTIALS
 GLOBAL| MM Potential file name                                     MM_POTENTIAL
 GLOBAL| Coordinate file name                                      __STD_INPUT__
 GLOBAL| Method name                                                        CP2K
 GLOBAL| Project name                                                    Ni_bulk
 GLOBAL| Run type                                                         ENERGY
 GLOBAL| FFT library                                                       FFTW3
 GLOBAL| Diagonalization library                                            ELPA
 GLOBAL| DGEMM library                                                      BLAS
 GLOBAL| Minimum number of eigenvectors for ELPA usage                        16
 GLOBAL| Orthonormality check for eigenvectors                          DISABLED
 GLOBAL| Matrix multiplication library                                 ScaLAPACK
 GLOBAL| All-to-all communication in single precision                          F
 GLOBAL| FFTs using library dependent lengths                                  F
 GLOBAL| Grid backend                                                       AUTO
 GLOBAL| Global print level                                               MEDIUM
 GLOBAL| MPI I/O enabled                                                       T
 GLOBAL| Total number of message passing processes                           128
 GLOBAL| Number of threads for this process                                    1
 GLOBAL| This output is from process                                           0
 GLOBAL| Stack size for threads created by OpenMP (OMP_STACKSIZE)        default
 GLOBAL| CPU model name                          AMD EPYC 7742 64-Core Processor
 GLOBAL| CPUID                                                              1002

 MEMORY| system memory details [Kb]
 MEMORY|                        rank 0           min           max       average
 MEMORY| MemTotal            263527824     263527824     263527824     263527824
 MEMORY| MemFree             238729004     238729004     238729004     238729004
 MEMORY| Buffers                 25100         25100         25100         25100
 MEMORY| Cached                 729172        729172        729172        729172
 MEMORY| Slab                  1634296       1634296       1634296       1634296
 MEMORY| SReclaimable           126156        126156        126156        126156
 MEMORY| MemLikelyFree       239609432     239609432     239609432     239609432


 *** Fundamental physical constants (SI units) ***

 *** Literature: B. J. Mohr and B. N. Taylor,
 ***             CODATA recommended values of the fundamental physical
 ***             constants: 2006, Web Version 5.1
 ***             http://physics.nist.gov/constants

 Speed of light in vacuum [m/s]                             2.99792458000000E+08
 Magnetic constant or permeability of vacuum [N/A**2]       1.25663706143592E-06
 Electric constant or permittivity of vacuum [F/m]          8.85418781762039E-12
 Planck constant (h) [J*s]                                  6.62606896000000E-34
 Planck constant (h-bar) [J*s]                              1.05457162825177E-34
 Elementary charge [C]                                      1.60217648700000E-19
 Electron mass [kg]                                         9.10938215000000E-31
 Electron g factor [ ]                                     -2.00231930436220E+00
 Proton mass [kg]                                           1.67262163700000E-27
 Fine-structure constant                                    7.29735253760000E-03
 Rydberg constant [1/m]                                     1.09737315685270E+07
 Avogadro constant [1/mol]                                  6.02214179000000E+23
 Boltzmann constant [J/K]                                   1.38065040000000E-23
 Atomic mass unit [kg]                                      1.66053878200000E-27
 Bohr radius [m]                                            5.29177208590000E-11

 *** Conversion factors ***

 [u] -> [a.u.]                                              1.82288848426455E+03
 [Angstrom] -> [Bohr] = [a.u.]                              1.88972613288564E+00
 [a.u.] = [Bohr] -> [Angstrom]                              5.29177208590000E-01
 [a.u.] -> [s]                                              2.41888432650478E-17
 [a.u.] -> [fs]                                             2.41888432650478E-02
 [a.u.] -> [J]                                              4.35974393937059E-18
 [a.u.] -> [N]                                              8.23872205491840E-08
 [a.u.] -> [K]                                              3.15774647902944E+05
 [a.u.] -> [kJ/mol]                                         2.62549961709828E+03
 [a.u.] -> [kcal/mol]                                       6.27509468713739E+02
 [a.u.] -> [Pa]                                             2.94210107994716E+13
 [a.u.] -> [bar]                                            2.94210107994716E+08
 [a.u.] -> [atm]                                            2.90362800883016E+08
 [a.u.] -> [eV]                                             2.72113838565563E+01
 [a.u.] -> [Hz]                                             6.57968392072181E+15
 [a.u.] -> [1/cm] (wave numbers)                            2.19474631370540E+05
 [a.u./Bohr**2] -> [1/cm]                                   5.14048714338585E+03
 

 CELL_TOP| Volume [angstrom^3]:                                       983.249569
 CELL_TOP| Vector a [angstrom     7.012     0.000     0.000   |a| =     7.011596
 CELL_TOP| Vector b [angstrom     0.000     7.012     0.000   |b| =     7.011596
 CELL_TOP| Vector c [angstrom     0.000     0.000    20.000   |c| =    20.000000
 CELL_TOP| Angle (b,c), alpha [degree]:                                90.000000
 CELL_TOP| Angle (a,c), beta  [degree]:                                90.000000
 CELL_TOP| Angle (a,b), gamma [degree]:                                90.000000
 CELL_TOP| Numerically orthorhombic:                                         YES
 CELL_TOP| Periodicity                                                       XYZ

 GENERATE|  Preliminary Number of Bonds generated:                             0
 GENERATE|  Achieved consistency in connectivity generation.

 CELL| Volume [angstrom^3]:                                           983.249569
 CELL| Vector a [angstrom]:       7.012     0.000     0.000   |a| =     7.011596
 CELL| Vector b [angstrom]:       0.000     7.012     0.000   |b| =     7.011596
 CELL| Vector c [angstrom]:       0.000     0.000    20.000   |c| =    20.000000
 CELL| Angle (b,c), alpha [degree]:                                    90.000000
 CELL| Angle (a,c), beta  [degree]:                                    90.000000
 CELL| Angle (a,b), gamma [degree]:                                    90.000000
 CELL| Numerically orthorhombic:                                             YES
 CELL| Periodicity                                                           XYZ

 CELL_REF| Volume [angstrom^3]:                                       983.249569
 CELL_REF| Vector a [angstrom     7.012     0.000     0.000   |a| =     7.011596
 CELL_REF| Vector b [angstrom     0.000     7.012     0.000   |b| =     7.011596
 CELL_REF| Vector c [angstrom     0.000     0.000    20.000   |c| =    20.000000
 CELL_REF| Angle (b,c), alpha [degree]:                                90.000000
 CELL_REF| Angle (a,c), beta  [degree]:                                90.000000
 CELL_REF| Angle (a,b), gamma [degree]:                                90.000000
 CELL_REF| Numerically orthorhombic:                                         YES
 CELL_REF| Periodicity                                                       XYZ

 *** WARNING in cryssym.F:165 :: Symmetry library SPGLIB not available ***


 *******************************************************************************
                                    Kpoints
 *******************************************************************************
 BRILLOUIN| K-point scheme                                        Monkhorst-Pack
 BRILLOUIN| K-Point grid                                             4    4    1
 BRILLOUIN| Accuracy in Symmetry determination                      0.100000E-05
 BRILLOUIN| K-Point point group symmetrization                               OFF
 BRILLOUIN| Wavefunction type                                            COMPLEX
 BRILLOUIN| List of Kpoints [2 Pi/Bohr]                                        8
 BRILLOUIN| Number           Weight            X              Y              Z
 BRILLOUIN|     1           0.12500       -0.37500       -0.37500        0.00000
 BRILLOUIN|     2           0.12500       -0.37500       -0.12500        0.00000
 BRILLOUIN|     3           0.12500       -0.37500        0.12500        0.00000
 BRILLOUIN|     4           0.12500       -0.37500        0.37500        0.00000
 BRILLOUIN|     5           0.12500       -0.12500       -0.37500        0.00000
 BRILLOUIN|     6           0.12500       -0.12500       -0.12500        0.00000
 BRILLOUIN|     7           0.12500       -0.12500        0.12500        0.00000
 BRILLOUIN|     8           0.12500       -0.12500        0.37500        0.00000
 *******************************************************************************

 *******************************************************************************
 *******************************************************************************
 **                                                                           **
 **     #####                         ##              ##                      **
 **    ##   ##            ##          ##              ##                      **
 **   ##     ##                       ##            ######                    **
 **   ##     ##  ##   ##  ##   #####  ##  ##   ####   ##    #####    #####    **
 **   ##     ##  ##   ##  ##  ##      ## ##   ##      ##   ##   ##  ##   ##   **
 **   ##  ## ##  ##   ##  ##  ##      ####     ###    ##   ######   ######    **
 **    ##  ###   ##   ##  ##  ##      ## ##      ##   ##   ##       ##        **
 **     #######   #####   ##   #####  ##  ##  ####    ##    #####   ##        **
 **           ##                                                    ##        **
 **                                                                           **
 **                                                ... make the atoms dance   **
 **                                                                           **
 **            Copyright (C) by CP2K developers group (2000-2023)             **
 **                      J. Chem. Phys. 152, 194103 (2020)                    **
 **                                                                           **
 *******************************************************************************

 *** WARNING in qs_environment.F:1456 :: Number of electrons will be ***
 *** overwritten by NELEC_ALPHA and NELEC_BETA, multiplicity will be ***
 *** ignored.                                                        ***

 Number of electrons should be                                               576
 Sum of NELEC_ALPHA and NELEC_BETA is                                    576.000

 *** WARNING in qs_environment.F:1488 :: NELEC_ALPHA is not an integer, ***
 *** many features will not be supported.                               ***


 *** WARNING in qs_environment.F:1500 :: NELEC_BETA is not an integer, ***
 *** many features will not be supported.                              ***


 *** WARNING in qs_environment.F:1532 :: More ADDED_MOs requested for beta ***
 *** spin than available.                                                  ***


 *** WARNING in qs_environment.F:1548 :: More added MOs requested than     ***
 *** available. The full set of unoccupied MOs will be used. Use           ***
 *** 'ADDED_MOS -1' to always use all available MOs and to get rid of this ***
 *** warning.                                                              ***


 DFT| Spin unrestricted (spin-polarized) Kohn-Sham calculation               UKS
 DFT| Multiplicity                                                             1
 DFT| Number of spin states                                                    2
 DFT| Charge                                                                   0
 DFT| Self-interaction correction (SIC)                                       NO
 DFT| Cutoffs: density                                              1.000000E-10
 DFT|          gradient                                             1.000000E-10
 DFT|          tau                                                  1.000000E-10
 DFT|          cutoff_smoothing_range                               0.000000E+00
 DFT| XC density smoothing                                                  NONE
 DFT| XC derivatives                                                          PW

 FUNCTIONAL| PBE:
 FUNCTIONAL| J.P.Perdew, K.Burke, M.Ernzerhof, Phys. Rev. Letter, vol. 77, n 18,
 FUNCTIONAL|  pp. 3865-3868, (1996){spin polarized}                             

 vdW POTENTIAL|                                                   Pair Potential
 vdW POTENTIAL|          DFT-D3 (Version 3.1)
 vdW POTENTIAL|          Potential Form: S. Grimme et al, JCP 132: 154104 (2010)
 vdW POTENTIAL|          Zero Damping
 vdW POTENTIAL|          Cutoff Radius [Bohr]:                             20.00
 vdW POTENTIAL|          s6 Scaling Factor:                               1.0000
 vdW POTENTIAL|          sr6 Scaling Factor:                              1.2170
 vdW POTENTIAL|          s8 Scaling Factor:                               0.7220
 vdW POTENTIAL|          Cutoff for CN calculation:                   0.1000E-05

 QS| Method:                                                                 GPW
 QS| Density plane wave grid type                        NON-SPHERICAL FULLSPACE
 QS| Number of grid levels:                                                    5
 QS| Density cutoff [a.u.]:                                                300.0
 QS| Multi grid cutoff [a.u.]: 1) grid level                               300.0
 QS|                           2) grid level                               100.0
 QS|                           3) grid level                                33.3
 QS|                           4) grid level                                11.1
 QS|                           5) grid level                                 3.7
 QS| Grid level progression factor:                                          3.0
 QS| Relative density cutoff [a.u.]:                                        30.0
 QS| Interaction thresholds: eps_pgf_orb:                                1.0E-06
 QS|                         eps_filter_matrix:                          0.0E+00
 QS|                         eps_core_charge:                            1.0E-14
 QS|                         eps_rho_gspace:                             1.0E-12
 QS|                         eps_rho_rspace:                             1.0E-12
 QS|                         eps_gvg_rspace:                             1.0E-06
 QS|                         eps_ppl:                                    1.0E-02
 QS|                         eps_ppnl:                                   1.0E-08


 ATOMIC KIND INFORMATION

  1. Atomic kind: Ni_i                                  Number of atoms:      16

     Orbital Basis Set                                        DZVP-MOLOPT-SR-GTH

       Number of orbital shell sets:                                           1
       Number of orbital shells:                                               8
       Number of primitive Cartesian functions:                                6
       Number of Cartesian basis functions:                                   31
       Number of spherical basis functions:                                   26
       Norm type:                                                              2

       Normalised Cartesian orbitals:

                        Set   Shell   Orbital            Exponent    Coefficient

                          1       1    2s               10.077428      -0.684558
                                                         5.847736      -0.844524
                                                         2.494033       1.088856
                                                         0.988355       0.395503
                                                         0.344978       0.010224
                                                         0.099466      -0.003250

                          1       2    3s               10.077428       0.096747
                                                         5.847736       0.162504
                                                         2.494033      -0.297192
                                                         0.988355      -0.319752
                                                         0.344978       0.088318
                                                         0.099466       0.118587

                          1       3    4s               10.077428       0.036437
                                                         5.847736      -0.381480
                                                         2.494033       0.003759
                                                         0.988355      -1.048256
                                                         0.344978       0.855825
                                                         0.099466      -0.176350

                          1       4    3px              10.077428      -3.133913
                                                         5.847736       3.027656
                                                         2.494033       2.353227
                                                         0.988355       0.554184
                                                         0.344978       0.019462
                                                         0.099466      -0.000291
                          1       4    3py              10.077428      -3.133913
                                                         5.847736       3.027656
                                                         2.494033       2.353227
                                                         0.988355       0.554184
                                                         0.344978       0.019462
                                                         0.099466      -0.000291
                          1       4    3pz              10.077428      -3.133913
                                                         5.847736       3.027656
                                                         2.494033       2.353227
                                                         0.988355       0.554184
                                                         0.344978       0.019462
                                                         0.099466      -0.000291

                          1       5    4px              10.077428      -0.112729
                                                         5.847736      -0.114008
                                                         2.494033      -0.347303
                                                         0.988355      -0.110323
                                                         0.344978       0.154096
                                                         0.099466       0.058386
                          1       5    4py              10.077428      -0.112729
                                                         5.847736      -0.114008
                                                         2.494033      -0.347303
                                                         0.988355      -0.110323
                                                         0.344978       0.154096
                                                         0.099466       0.058386
                          1       5    4pz              10.077428      -0.112729
                                                         5.847736      -0.114008
                                                         2.494033      -0.347303
                                                         0.988355      -0.110323
                                                         0.344978       0.154096
                                                         0.099466       0.058386

                          1       6    4dx2             10.077428       8.232726
                                                         5.847736       9.105758
                                                         2.494033       2.849835
                                                         0.988355       0.554319
                                                         0.344978       0.067245
                                                         0.099466       0.001940
                          1       6    4dxy             10.077428      14.259500
                                                         5.847736      15.771636
                                                         2.494033       4.936060
                                                         0.988355       0.960109
                                                         0.344978       0.116472
                                                         0.099466       0.003360
                          1       6    4dxz             10.077428      14.259500
                                                         5.847736      15.771636
                                                         2.494033       4.936060
                                                         0.988355       0.960109
                                                         0.344978       0.116472
                                                         0.099466       0.003360
                          1       6    4dy2             10.077428       8.232726
                                                         5.847736       9.105758
                                                         2.494033       2.849835
                                                         0.988355       0.554319
                                                         0.344978       0.067245
                                                         0.099466       0.001940
                          1       6    4dyz             10.077428      14.259500
                                                         5.847736      15.771636
                                                         2.494033       4.936060
                                                         0.988355       0.960109
                                                         0.344978       0.116472
                                                         0.099466       0.003360
                          1       6    4dz2             10.077428       8.232726
                                                         5.847736       9.105758
                                                         2.494033       2.849835
                                                         0.988355       0.554319
                                                         0.344978       0.067245
                                                         0.099466       0.001940

                          1       7    5dx2             10.077428      -2.715373
                                                         5.847736      -4.020640
                                                         2.494033      -1.397569
                                                         0.988355      -0.076143
                                                         0.344978       0.033435
                                                         0.099466       0.026032
                          1       7    5dxy             10.077428      -4.703164
                                                         5.847736      -6.963952
                                                         2.494033      -2.420661
                                                         0.988355      -0.131883
                                                         0.344978       0.057911
                                                         0.099466       0.045088
                          1       7    5dxz             10.077428      -4.703164
                                                         5.847736      -6.963952
                                                         2.494033      -2.420661
                                                         0.988355      -0.131883
                                                         0.344978       0.057911
                                                         0.099466       0.045088
                          1       7    5dy2             10.077428      -2.715373
                                                         5.847736      -4.020640
                                                         2.494033      -1.397569
                                                         0.988355      -0.076143
                                                         0.344978       0.033435
                                                         0.099466       0.026032
                          1       7    5dyz             10.077428      -4.703164
                                                         5.847736      -6.963952
                                                         2.494033      -2.420661
                                                         0.988355      -0.131883
                                                         0.344978       0.057911
                                                         0.099466       0.045088
                          1       7    5dz2             10.077428      -2.715373
                                                         5.847736      -4.020640
                                                         2.494033      -1.397569
                                                         0.988355      -0.076143
                                                         0.344978       0.033435
                                                         0.099466       0.026032

                          1       8    5fx3             10.077428      -0.467694
                                                         5.847736       0.618100
                                                         2.494033       0.066069
                                                         0.988355       0.262898
                                                         0.344978       0.004720
                                                         0.099466       0.007748
                          1       8    5fx2y            10.077428      -1.045795
                                                         5.847736       1.382114
                                                         2.494033       0.147734
                                                         0.988355       0.587859
                                                         0.344978       0.010555
                                                         0.099466       0.017325
                          1       8    5fx2z            10.077428      -1.045795
                                                         5.847736       1.382114
                                                         2.494033       0.147734
                                                         0.988355       0.587859
                                                         0.344978       0.010555
                                                         0.099466       0.017325
                          1       8    5fxy2            10.077428      -1.045795
                                                         5.847736       1.382114
                                                         2.494033       0.147734
                                                         0.988355       0.587859
                                                         0.344978       0.010555
                                                         0.099466       0.017325
                          1       8    5fxyz            10.077428      -1.811371
                                                         5.847736       2.393892
                                                         2.494033       0.255883
                                                         0.988355       1.018201
                                                         0.344978       0.018282
                                                         0.099466       0.030008
                          1       8    5fxz2            10.077428      -1.045795
                                                         5.847736       1.382114
                                                         2.494033       0.147734
                                                         0.988355       0.587859
                                                         0.344978       0.010555
                                                         0.099466       0.017325
                          1       8    5fy3             10.077428      -0.467694
                                                         5.847736       0.618100
                                                         2.494033       0.066069
                                                         0.988355       0.262898
                                                         0.344978       0.004720
                                                         0.099466       0.007748
                          1       8    5fy2z            10.077428      -1.045795
                                                         5.847736       1.382114
                                                         2.494033       0.147734
                                                         0.988355       0.587859
                                                         0.344978       0.010555
                                                         0.099466       0.017325
                          1       8    5fyz2            10.077428      -1.045795
                                                         5.847736       1.382114
                                                         2.494033       0.147734
                                                         0.988355       0.587859
                                                         0.344978       0.010555
                                                         0.099466       0.017325
                          1       8    5fz3             10.077428      -0.467694
                                                         5.847736       0.618100
                                                         2.494033       0.066069
                                                         0.988355       0.262898
                                                         0.344978       0.004720
                                                         0.099466       0.007748

       Atomic covalent radius [Angstrom]:                                  1.150

       Atomic van der Waals radius [Angstrom]:                             1.630

     GTH Potential information for                                   GTH-PBE-q18

       Description:                       Goedecker-Teter-Hutter pseudopotential
                                           Goedecker et al., PRB 54, 1703 (1996)
                                          Hartwigsen et al., PRB 58, 3641 (1998)
                                                      Krack, TCA 114, 145 (2005)

       Gaussian exponent of the core charge distribution:               4.081633
       Electronic configuration (s p d ...):                           4   6   8

       Parameters of the local part of the GTH pseudopotential:

                          rloc        C1          C2          C3          C4
                        0.350000    2.102166    0.648484

       Parameters of the non-local part of the GTH pseudopotential:

                   l      r(l)      h(i,j,l)

                   0    0.261295    0.622658    9.970227
                                    9.970227  -12.871507
                   1    0.224253  -11.142708   12.429566
                                   12.429566  -14.706861
                   2    0.215348  -12.628146

  2. Atomic kind: Ni_b                                  Number of atoms:      16

     Orbital Basis Set                                        DZVP-MOLOPT-SR-GTH

       Number of orbital shell sets:                                           1
       Number of orbital shells:                                               8
       Number of primitive Cartesian functions:                                6
       Number of Cartesian basis functions:                                   31
       Number of spherical basis functions:                                   26
       Norm type:                                                              2

       Normalised Cartesian orbitals:

                        Set   Shell   Orbital            Exponent    Coefficient

                          1       1    2s               10.077428      -0.684558
                                                         5.847736      -0.844524
                                                         2.494033       1.088856
                                                         0.988355       0.395503
                                                         0.344978       0.010224
                                                         0.099466      -0.003250

                          1       2    3s               10.077428       0.096747
                                                         5.847736       0.162504
                                                         2.494033      -0.297192
                                                         0.988355      -0.319752
                                                         0.344978       0.088318
                                                         0.099466       0.118587

                          1       3    4s               10.077428       0.036437
                                                         5.847736      -0.381480
                                                         2.494033       0.003759
                                                         0.988355      -1.048256
                                                         0.344978       0.855825
                                                         0.099466      -0.176350

                          1       4    3px              10.077428      -3.133913
                                                         5.847736       3.027656
                                                         2.494033       2.353227
                                                         0.988355       0.554184
                                                         0.344978       0.019462
                                                         0.099466      -0.000291
                          1       4    3py              10.077428      -3.133913
                                                         5.847736       3.027656
                                                         2.494033       2.353227
                                                         0.988355       0.554184
                                                         0.344978       0.019462
                                                         0.099466      -0.000291
                          1       4    3pz              10.077428      -3.133913
                                                         5.847736       3.027656
                                                         2.494033       2.353227
                                                         0.988355       0.554184
                                                         0.344978       0.019462
                                                         0.099466      -0.000291

                          1       5    4px              10.077428      -0.112729
                                                         5.847736      -0.114008
                                                         2.494033      -0.347303
                                                         0.988355      -0.110323
                                                         0.344978       0.154096
                                                         0.099466       0.058386
                          1       5    4py              10.077428      -0.112729
                                                         5.847736      -0.114008
                                                         2.494033      -0.347303
                                                         0.988355      -0.110323
                                                         0.344978       0.154096
                                                         0.099466       0.058386
                          1       5    4pz              10.077428      -0.112729
                                                         5.847736      -0.114008
                                                         2.494033      -0.347303
                                                         0.988355      -0.110323
                                                         0.344978       0.154096
                                                         0.099466       0.058386

                          1       6    4dx2             10.077428       8.232726
                                                         5.847736       9.105758
                                                         2.494033       2.849835
                                                         0.988355       0.554319
                                                         0.344978       0.067245
                                                         0.099466       0.001940
                          1       6    4dxy             10.077428      14.259500
                                                         5.847736      15.771636
                                                         2.494033       4.936060
                                                         0.988355       0.960109
                                                         0.344978       0.116472
                                                         0.099466       0.003360
                          1       6    4dxz             10.077428      14.259500
                                                         5.847736      15.771636
                                                         2.494033       4.936060
                                                         0.988355       0.960109
                                                         0.344978       0.116472
                                                         0.099466       0.003360
                          1       6    4dy2             10.077428       8.232726
                                                         5.847736       9.105758
                                                         2.494033       2.849835
                                                         0.988355       0.554319
                                                         0.344978       0.067245
                                                         0.099466       0.001940
                          1       6    4dyz             10.077428      14.259500
                                                         5.847736      15.771636
                                                         2.494033       4.936060
                                                         0.988355       0.960109
                                                         0.344978       0.116472
                                                         0.099466       0.003360
                          1       6    4dz2             10.077428       8.232726
                                                         5.847736       9.105758
                                                         2.494033       2.849835
                                                         0.988355       0.554319
                                                         0.344978       0.067245
                                                         0.099466       0.001940

                          1       7    5dx2             10.077428      -2.715373
                                                         5.847736      -4.020640
                                                         2.494033      -1.397569
                                                         0.988355      -0.076143
                                                         0.344978       0.033435
                                                         0.099466       0.026032
                          1       7    5dxy             10.077428      -4.703164
                                                         5.847736      -6.963952
                                                         2.494033      -2.420661
                                                         0.988355      -0.131883
                                                         0.344978       0.057911
                                                         0.099466       0.045088
                          1       7    5dxz             10.077428      -4.703164
                                                         5.847736      -6.963952
                                                         2.494033      -2.420661
                                                         0.988355      -0.131883
                                                         0.344978       0.057911
                                                         0.099466       0.045088
                          1       7    5dy2             10.077428      -2.715373
                                                         5.847736      -4.020640
                                                         2.494033      -1.397569
                                                         0.988355      -0.076143
                                                         0.344978       0.033435
                                                         0.099466       0.026032
                          1       7    5dyz             10.077428      -4.703164
                                                         5.847736      -6.963952
                                                         2.494033      -2.420661
                                                         0.988355      -0.131883
                                                         0.344978       0.057911
                                                         0.099466       0.045088
                          1       7    5dz2             10.077428      -2.715373
                                                         5.847736      -4.020640
                                                         2.494033      -1.397569
                                                         0.988355      -0.076143
                                                         0.344978       0.033435
                                                         0.099466       0.026032

                          1       8    5fx3             10.077428      -0.467694
                                                         5.847736       0.618100
                                                         2.494033       0.066069
                                                         0.988355       0.262898
                                                         0.344978       0.004720
                                                         0.099466       0.007748
                          1       8    5fx2y            10.077428      -1.045795
                                                         5.847736       1.382114
                                                         2.494033       0.147734
                                                         0.988355       0.587859
                                                         0.344978       0.010555
                                                         0.099466       0.017325
                          1       8    5fx2z            10.077428      -1.045795
                                                         5.847736       1.382114
                                                         2.494033       0.147734
                                                         0.988355       0.587859
                                                         0.344978       0.010555
                                                         0.099466       0.017325
                          1       8    5fxy2            10.077428      -1.045795
                                                         5.847736       1.382114
                                                         2.494033       0.147734
                                                         0.988355       0.587859
                                                         0.344978       0.010555
                                                         0.099466       0.017325
                          1       8    5fxyz            10.077428      -1.811371
                                                         5.847736       2.393892
                                                         2.494033       0.255883
                                                         0.988355       1.018201
                                                         0.344978       0.018282
                                                         0.099466       0.030008
                          1       8    5fxz2            10.077428      -1.045795
                                                         5.847736       1.382114
                                                         2.494033       0.147734
                                                         0.988355       0.587859
                                                         0.344978       0.010555
                                                         0.099466       0.017325
                          1       8    5fy3             10.077428      -0.467694
                                                         5.847736       0.618100
                                                         2.494033       0.066069
                                                         0.988355       0.262898
                                                         0.344978       0.004720
                                                         0.099466       0.007748
                          1       8    5fy2z            10.077428      -1.045795
                                                         5.847736       1.382114
                                                         2.494033       0.147734
                                                         0.988355       0.587859
                                                         0.344978       0.010555
                                                         0.099466       0.017325
                          1       8    5fyz2            10.077428      -1.045795
                                                         5.847736       1.382114
                                                         2.494033       0.147734
                                                         0.988355       0.587859
                                                         0.344978       0.010555
                                                         0.099466       0.017325
                          1       8    5fz3             10.077428      -0.467694
                                                         5.847736       0.618100
                                                         2.494033       0.066069
                                                         0.988355       0.262898
                                                         0.344978       0.004720
                                                         0.099466       0.007748

       Atomic covalent radius [Angstrom]:                                  1.150

       Atomic van der Waals radius [Angstrom]:                             1.630

     GTH Potential information for                                   GTH-PBE-q18

       Description:                       Goedecker-Teter-Hutter pseudopotential
                                           Goedecker et al., PRB 54, 1703 (1996)
                                          Hartwigsen et al., PRB 58, 3641 (1998)
                                                      Krack, TCA 114, 145 (2005)

       Gaussian exponent of the core charge distribution:               4.081633
       Electronic configuration (s p d ...):                           4   6   8

       Parameters of the local part of the GTH pseudopotential:

                          rloc        C1          C2          C3          C4
                        0.350000    2.102166    0.648484

       Parameters of the non-local part of the GTH pseudopotential:

                   l      r(l)      h(i,j,l)

                   0    0.261295    0.622658    9.970227
                                    9.970227  -12.871507
                   1    0.224253  -11.142708   12.429566
                                   12.429566  -14.706861
                   2    0.215348  -12.628146


 MOLECULE KIND INFORMATION


 All atoms are their own molecule, skipping detailed information


 TOTAL NUMBERS AND MAXIMUM NUMBERS

  Total number of            - Atomic kinds:                                   2
                             - Atoms:                                         32
                             - Shell sets:                                    32
                             - Shells:                                       256
                             - Primitive Cartesian functions:                192
                             - Cartesian basis functions:                    992
                             - Spherical basis functions:                    832

  Maximum angular momentum of- Orbital basis functions:                        3
                             - Local part of the GTH pseudopotential:          2
                             - Non-local part of the GTH pseudopotential:      3


 MODULE QUICKSTEP: ATOMIC COORDINATES IN ANGSTROM

   Atom Kind Element         X             Y             Z       Z(eff)     Mass
      1    1 Ni   28      0.876298      0.876298      7.370500  18.0000  58.6934
      2    1 Ni   28      0.876298      4.382298      7.370500  18.0000  58.6934
      3    1 Ni   28      2.629298      2.629298      7.370500  18.0000  58.6934
      4    1 Ni   28      2.629298      6.135298      7.370500  18.0000  58.6934
      5    1 Ni   28      4.382298      0.876298      7.370500  18.0000  58.6934
      6    1 Ni   28      4.382298      4.382298      7.370500  18.0000  58.6934
      7    1 Ni   28      6.135298      2.629298      7.370500  18.0000  58.6934
      8    1 Ni   28      6.135298      6.135298      7.370500  18.0000  58.6934
      9    2 Ni   28      0.876298      2.629298      9.123500  18.0000  58.6934
     10    2 Ni   28      0.876298      6.135298      9.123500  18.0000  58.6934
     11    2 Ni   28      2.629298      0.876298      9.123500  18.0000  58.6934
     12    2 Ni   28      2.629298      4.382298      9.123500  18.0000  58.6934
     13    2 Ni   28      4.382298      2.629298      9.123500  18.0000  58.6934
     14    2 Ni   28      4.382298      6.135298      9.123500  18.0000  58.6934
     15    2 Ni   28      6.135298      0.876298      9.123500  18.0000  58.6934
     16    2 Ni   28      6.135298      4.382298      9.123500  18.0000  58.6934
     17    2 Ni   28      0.876298      0.876298     10.876500  18.0000  58.6934
     18    2 Ni   28      0.876298      4.382298     10.876500  18.0000  58.6934
     19    2 Ni   28      2.629298      2.629298     10.876500  18.0000  58.6934
     20    2 Ni   28      2.629298      6.135298     10.876500  18.0000  58.6934
     21    2 Ni   28      4.382298      0.876298     10.876500  18.0000  58.6934
     22    2 Ni   28      4.382298      4.382298     10.876500  18.0000  58.6934
     23    2 Ni   28      6.135298      2.629298     10.876500  18.0000  58.6934
     24    2 Ni   28      6.135298      6.135298     10.876500  18.0000  58.6934
     25    1 Ni   28      0.876298      2.629298     12.629500  18.0000  58.6934
     26    1 Ni   28      0.876298      6.135298     12.629500  18.0000  58.6934
     27    1 Ni   28      2.629298      0.876298     12.629500  18.0000  58.6934
     28    1 Ni   28      2.629298      4.382298     12.629500  18.0000  58.6934
     29    1 Ni   28      4.382298      2.629298     12.629500  18.0000  58.6934
     30    1 Ni   28      4.382298      6.135298     12.629500  18.0000  58.6934
     31    1 Ni   28      6.135298      0.876298     12.629500  18.0000  58.6934
     32    1 Ni   28      6.135298      4.382298     12.629500  18.0000  58.6934



 SCF PARAMETERS         Density guess:                                    ATOMIC
                        --------------------------------------------------------
                        max_scf:                                             500
                        max_scf_history:                                       0
                        max_diis:                                              4
                        --------------------------------------------------------
                        eps_scf:                                        1.00E-04
                        eps_scf_history:                                0.00E+00
                        eps_diis:                                       1.00E-01
                        eps_eigval:                                     1.00E-05
                        --------------------------------------------------------
                        level_shift [a.u.]:                             0.000000
                        added MOs                                       533  554
                        --------------------------------------------------------
                        Mixing method:                            BROYDEN_MIXING
                                                charge density mixing in g-space
                        --------------------------------------------------------
                        Smear method:                                FERMI_DIRAC
                        Electronic temperature [K]:                       2000.0
                        Electronic temperature [a.u.]:                  6.33E-03
                        Accuracy threshold:                             1.00E-10
                        --------------------------------------------------------
                        No outer SCF

 PW_GRID| Information for grid number                                          1
 PW_GRID| Grid distributed over                                   128 processors
 PW_GRID| Real space group dimensions                                     8   16
 PW_GRID| the grid is blocked:                                               YES
 PW_GRID| Cutoff [a.u.]                                                    300.0
 PW_GRID| spherical cutoff:                                                   NO
 PW_GRID|   Bounds   1            -54      53                Points:         108
 PW_GRID|   Bounds   2            -54      53                Points:         108
 PW_GRID|   Bounds   3           -150     149                Points:         300
 PW_GRID| Volume element (a.u.^3)  0.1896E-02     Volume (a.u.^3)      6635.2971
 PW_GRID| Grid span                                                    FULLSPACE
 PW_GRID|   Distribution                         Average         Max         Min
 PW_GRID|   G-Vectors                            27337.5       28728       25272
 PW_GRID|   G-Rays                                 253.1         266         234
 PW_GRID|   Real Space Points                    27337.5       28728       25272

 PW_GRID| Information for grid number                                          2
 PW_GRID| Number of the reference grid                                         1
 PW_GRID| Grid distributed over                                   128 processors
 PW_GRID| Real space group dimensions                                     8   16
 PW_GRID| the grid is blocked:                                                NO
 PW_GRID| Cutoff [a.u.]                                                    100.0
 PW_GRID| spherical cutoff:                                                   NO
 PW_GRID|   Bounds   1            -30      29                Points:          60
 PW_GRID|   Bounds   2            -30      29                Points:          60
 PW_GRID|   Bounds   3            -90      89                Points:         180
 PW_GRID| Volume element (a.u.^3)  0.1024E-01     Volume (a.u.^3)      6635.2971
 PW_GRID| Grid span                                                    FULLSPACE
 PW_GRID|   Distribution                         Average         Max         Min
 PW_GRID|   G-Vectors                             5062.5       15960           0
 PW_GRID|   G-Rays                                  84.4         266           0
 PW_GRID|   Real Space Points                     5062.5        5760        3780

 PW_GRID| Information for grid number                                          3
 PW_GRID| Number of the reference grid                                         1
 PW_GRID| Grid distributed over                                   128 processors
 PW_GRID| Real space group dimensions                                     8   16
 PW_GRID| the grid is blocked:                                                NO
 PW_GRID| Cutoff [a.u.]                                                     33.3
 PW_GRID| spherical cutoff:                                                   NO
 PW_GRID|   Bounds   1            -18      17                Points:          36
 PW_GRID|   Bounds   2            -18      17                Points:          36
 PW_GRID|   Bounds   3            -50      49                Points:         100
 PW_GRID| Volume element (a.u.^3)  0.5120E-01     Volume (a.u.^3)      6635.2971
 PW_GRID| Grid span                                                    FULLSPACE
 PW_GRID|   Distribution                         Average         Max         Min
 PW_GRID|   G-Vectors                             1012.5        9576           0
 PW_GRID|   G-Rays                                  28.1         266           0
 PW_GRID|   Real Space Points                     1012.5        1500         800

 PW_GRID| Information for grid number                                          4
 PW_GRID| Number of the reference grid                                         1
 PW_GRID| Grid distributed over                                   128 processors
 PW_GRID| Real space group dimensions                                     8   16
 PW_GRID| the grid is blocked:                                                NO
 PW_GRID| Cutoff [a.u.]                                                     11.1
 PW_GRID| spherical cutoff:                                                   NO
 PW_GRID|   Bounds   1            -10       9                Points:          20
 PW_GRID|   Bounds   2            -10       9                Points:          20
 PW_GRID|   Bounds   3            -30      29                Points:          60
 PW_GRID| Volume element (a.u.^3)  0.2765         Volume (a.u.^3)      6635.2971
 PW_GRID| Grid span                                                    FULLSPACE
 PW_GRID|   Distribution                         Average         Max         Min
 PW_GRID|   G-Vectors                              187.5        3800           0
 PW_GRID|   G-Rays                                   9.4         190           0
 PW_GRID|   Real Space Points                      187.5         360         120

 PW_GRID| Information for grid number                                          5
 PW_GRID| Number of the reference grid                                         1
 PW_GRID| Grid distributed over                                   128 processors
 PW_GRID| Real space group dimensions                                     8   16
 PW_GRID| the grid is blocked:                                                NO
 PW_GRID| Cutoff [a.u.]                                                      3.7
 PW_GRID| spherical cutoff:                                                   NO
 PW_GRID|   Bounds   1             -6       5                Points:          12
 PW_GRID|   Bounds   2             -6       5                Points:          12
 PW_GRID|   Bounds   3            -18      17                Points:          36
 PW_GRID| Volume element (a.u.^3)   1.280         Volume (a.u.^3)      6635.2971
 PW_GRID| Grid span                                                    FULLSPACE
 PW_GRID|   Distribution                         Average         Max         Min
 PW_GRID|   G-Vectors                               40.5        1296           0
 PW_GRID|   G-Rays                                   3.4         108           0
 PW_GRID|   Real Space Points                       40.5          72           0

 POISSON| Solver                                                        PERIODIC
 POISSON| Periodicity                                                        XYZ

 RS_GRID| Information for grid number                                          1
 RS_GRID|   Bounds   1            -54      53                Points:         108
 RS_GRID|   Bounds   2            -54      53                Points:         108
 RS_GRID|   Bounds   3           -150     149                Points:         300
 RS_GRID| Real space distribution over                                  8 groups
 RS_GRID| Real space distribution along direction                              2
 RS_GRID| Border size                                                         28
 RS_GRID| Real space distribution over                                 16 groups
 RS_GRID| Real space distribution along direction                              3
 RS_GRID| Border size                                                         28
 RS_GRID|   Distribution                         Average         Max         Min
 RS_GRID|   Planes                                  69.5          70          69
 RS_GRID|   Distribution                         Average         Max         Min
 RS_GRID|   Planes                                  74.8          75          74

 RS_GRID| Information for grid number                                          2
 RS_GRID|   Bounds   1            -30      29                Points:          60
 RS_GRID|   Bounds   2            -30      29                Points:          60
 RS_GRID|   Bounds   3            -90      89                Points:         180
 RS_GRID| Real space fully replicated
 RS_GRID| Group size                                                           1

 RS_GRID| Information for grid number                                          3
 RS_GRID|   Bounds   1            -18      17                Points:          36
 RS_GRID|   Bounds   2            -18      17                Points:          36
 RS_GRID|   Bounds   3            -50      49                Points:         100
 RS_GRID| Real space fully replicated
 RS_GRID| Group size                                                           1

 RS_GRID| Information for grid number                                          4
 RS_GRID|   Bounds   1            -10       9                Points:          20
 RS_GRID|   Bounds   2            -10       9                Points:          20
 RS_GRID|   Bounds   3            -30      29                Points:          60
 RS_GRID| Real space fully replicated
 RS_GRID| Group size                                                           1

 RS_GRID| Information for grid number                                          5
 RS_GRID|   Bounds   1             -6       5                Points:          12
 RS_GRID|   Bounds   2             -6       5                Points:          12
 RS_GRID|   Bounds   3            -18      17                Points:          36
 RS_GRID| Real space fully replicated
 RS_GRID| Group size                                                           1

 Spin 1

 Number of electrons:                                                        298.240
 Number of occupied orbitals:                                                299
 Number of molecular orbitals:                                               832

 Spin 2

 Number of electrons:                                                        277.760
 Number of occupied orbitals:                                                278
 Number of molecular orbitals:                                               832

 Number of orbital functions:                                                832
 Number of independent orbital functions:                                    832

 Extrapolation method: initial_guess

 Atomic guess: The first density matrix is obtained in terms of atomic orbitals
               and electronic configurations assigned to each atomic kind

 Guess for atomic kind: Ni_i

 Electronic structure
    Total number of core electrons                                         10.00
    Total number of valence electrons                                      18.00
    Total number of electrons                                              28.00
    Multiplicity                                                         doublet
    Alpha Electrons
    S   [  1.00  1.00] 1.00  1.00
    P   [  3.00] 3.00
    D      4.35
    Beta Electrons
    S   [  1.00  1.00] 1.00  1.00
    P   [  3.00] 3.00
    D      3.65


 *******************************************************************************
                  Iteration          Convergence                     Energy [au]
 *******************************************************************************
                          1         1.51729                    -167.067424631347
                          2         15.3902                    -156.642654318634
                          3         2.33433                    -168.319355313541
                          4        0.206730                    -168.609905008081
                          5        0.814175E-01                -168.612873080494
                          6        0.173318E-01                -168.613470181066
                          7        0.290432E-02                -168.613543571401
                          8        0.311825E-02                -168.613543401474
                          9        0.179670E-03                -168.613544404477
                         10        0.169386E-02                -168.613544207811
                         11        0.473341E-03                -168.613544360253
                         12        0.165417E-03                -168.613544400419
                         13        0.162622E-03                -168.613544401489
                         14        0.158325E-03                -168.613544403900
                         15        0.177007E-03                -168.613544402509
                         16        0.138916E-03                -168.613544404900
                         17        0.934549E-04                -168.613544406149
                         18        0.119916E-03                -168.613544405789
                         19        0.131607E-03                -168.613544405591
                         20        0.169309E-03                -168.613544404773
                         21        0.551337E-04                -168.613544406656
                         22        0.382664E-04                -168.613544406759
                         23        0.378942E-04                -168.613544406765
                         24        0.381089E-04                -168.613544406765
                         25        0.390835E-04                -168.613544406759
                         26        0.308614E-04                -168.613544406841
                         27        0.205044E-04                -168.613544406892
                         28        0.200942E-04                -168.613544406893
                         29        0.199375E-04                -168.613544406893
                         30        0.200198E-04                -168.613544406894
                         31        0.161325E-04                -168.613544406903
                         32        0.330614E-05                -168.613544406925
                         33        0.238713E-05                -168.613544406926
                         34        0.265439E-05                -168.613544406926
                         35        0.277073E-05                -168.613544406926
                         36        0.335175E-05                -168.613544406926
                         37        0.148809E-05                -168.613544406927
                         38        0.133447E-05                -168.613544406927
                         39        0.918735E-06                -168.613544406927

 Energy components [Hartree]           Total Energy ::         -168.613544406927
                                        Band Energy ::          -26.569761966525
                                     Kinetic Energy ::           97.306723392622
                                   Potential Energy ::         -265.920267799548
                                      Virial (-V/T) ::            2.732804666812
                                        Core Energy ::         -299.567979157577
                                          XC Energy ::          -16.227189041387
                                     Coulomb Energy ::          147.181623792037
                       Total Pseudopotential Energy ::         -396.961043505191
                       Local Pseudopotential Energy ::         -362.648291121960
                    Nonlocal Pseudopotential Energy ::          -34.312752383230
                                        Confinement ::            0.863409549921

 Orbital energies  State     Spin  L     Occupation   Energy[a.u.]    Energy[eV]

                       1    alpha  0          1.000      -4.172666   -113.544030
                       2    alpha  0          1.000      -0.181431     -4.936983
                       1     beta  0          1.000      -4.140640   -112.672541
                       2     beta  0          1.000      -0.176372     -4.799339

                       1    alpha  1          3.000      -2.578739    -70.171064
                       1     beta  1          3.000      -2.547579    -69.323162

                       1    alpha  2          4.350      -0.327039     -8.899191
                       1     beta  2          3.650      -0.300569     -8.178887


 Total Electron Density at R=0:                                         0.030422

 Guess for atomic kind: Ni_b

 Electronic structure
    Total number of core electrons                                         10.00
    Total number of valence electrons                                      18.00
    Total number of electrons                                              28.00
    Multiplicity                                                         doublet
    Alpha Electrons
    S   [  1.00  1.00] 1.00  1.00
    P   [  3.00] 3.00
    D      4.29
    Beta Electrons
    S   [  1.00  1.00] 1.00  1.00
    P   [  3.00] 3.00
    D      3.71


 *******************************************************************************
                  Iteration          Convergence                     Energy [au]
 *******************************************************************************
                          1         1.51704                    -167.065880999380
                          2         15.1454                    -156.628434569308
                          3         2.28731                    -168.318048960958
                          4        0.196295                    -168.608638356585
                          5        0.751559E-01                -168.611529111206
                          6        0.137421E-01                -168.612041897702
                          7        0.484102E-02                -168.612090154171
                          8        0.455988E-02                -168.612090045686
                          9        0.785969E-03                -168.612092220951
                         10        0.234828E-02                -168.612091877294
                         11        0.101548E-02                -168.612092151033
                         12        0.169374E-03                -168.612092279506
                         13        0.187654E-03                -168.612092278598
                         14        0.141607E-03                -168.612092282387
                         15        0.182943E-03                -168.612092278064
                         16        0.791294E-04                -168.612092284148
                         17        0.829809E-04                -168.612092284094
                         18        0.427262E-04                -168.612092284540
                         19        0.263871E-04                -168.612092284616
                         20        0.993729E-05                -168.612092284660
                         21        0.531768E-05                -168.612092284676
                         22        0.637460E-05                -168.612092284671
                         23        0.461948E-05                -168.612092284678
                         24        0.301611E-05                -168.612092284680
                         25        0.136915E-05                -168.612092284681
                         26        0.576949E-06                -168.612092284681

 Energy components [Hartree]           Total Energy ::         -168.612092284681
                                        Band Energy ::          -26.569072975630
                                     Kinetic Energy ::           97.304764742797
                                   Potential Energy ::         -265.916857027478
                                      Virial (-V/T) ::            2.732824623032
                                        Core Energy ::         -299.566835920012
                                          XC Energy ::          -16.225527790229
                                     Coulomb Energy ::          147.180271425560
                       Total Pseudopotential Energy ::         -396.957941396058
                       Local Pseudopotential Energy ::         -362.646216214533
                    Nonlocal Pseudopotential Energy ::          -34.311725181524
                                        Confinement ::            0.863407332482

 Orbital energies  State     Spin  L     Occupation   Energy[a.u.]    Energy[eV]

                       1    alpha  0          1.000      -4.170078   -113.473591
                       2    alpha  0          1.000      -0.181011     -4.925560
                       1     beta  0          1.000      -4.143541   -112.751497
                       2     beta  0          1.000      -0.176820     -4.811525

                       1    alpha  1          3.000      -2.576220    -70.102525
                       1     beta  1          3.000      -2.550402    -69.399976

                       1    alpha  2          4.290      -0.324891     -8.840731
                       1     beta  2          3.710      -0.302957     -8.243890


 Total Electron Density at R=0:                                         0.030426

 Spin 1
 Re-scaling the density matrix to get the right number of electrons for spin 1
                  # Electrons              Trace(P)               Scaling factor
                        298.240             298.240                        1.000

 Spin 2
 Re-scaling the density matrix to get the right number of electrons for spin 2
                  # Electrons              Trace(P)               Scaling factor
                        277.760             277.760                        1.000


 SCF WAVEFUNCTION OPTIMIZATION

  Step     Update method      Time    Convergence         Total energy    Change
  ------------------------------------------------------------------------------
     1 NoMix/Diag. 0.80E-01    1.4     0.87310343     -5426.4572542474 -5.43E+03
     2 Broy./Diag. 0.80E-01    1.5     0.01491711     -5316.6085214669  1.10E+02
[...]
   126 Broy./Diag. 0.80E-01    1.5     0.00109188     -5417.7630286563  1.00E-01
   127 Broy./Diag. 0.80E-01    1.5     0.00754469     -5417.7869945819 -2.40E-02
   128 Broy./Diag. 0.80E-01    1.5     0.00148131     -5417.8714856274 -8.45E-02
   129 Broy./Diag. 0.80E-01    1.5     0.00235808     -5417.8862205435 -1.47E-02
   130 Broy./Diag. 0.80E-01    1.5     0.00126956     -5417.8760430794  1.02E-02
   131 Broy./Diag. 0.80E-01    1.5     0.00131594     -5417.8796193679 -3.58E-03
   132 Broy./Diag. 0.80E-01    1.5     0.00046316     -5417.8642039041  1.54E-02
   133 Broy./Diag. 0.80E-01    1.5     0.00348588     -5417.8685343774 -4.33E-03
   134 Broy./Diag. 0.80E-01    1.5     0.00081361     -5417.8473296739  2.12E-02
   135 Broy./Diag. 0.80E-01    1.5     0.00432395     -5417.8602365564 -1.29E-02
   136 Broy./Diag. 0.80E-01    1.5     0.00111615     -5417.9077364045 -4.75E-02
   137 Broy./Diag. 0.80E-01    1.5     0.00046371     -5417.9055117159  2.22E-03
   138 Broy./Diag. 0.80E-01    1.5     0.00125469     -5417.8963823049  9.13E-03
   139 Broy./Diag. 0.80E-01    1.5     0.00113670     -5417.8824301859  1.40E-02
   140 Broy./Diag. 0.80E-01    1.5     0.00234302     -5417.9037544511 -2.13E-02
   141 Broy./Diag. 0.80E-01    1.5     0.00270287     -5417.8774550392  2.63E-02
   142 Broy./Diag. 0.80E-01    1.5     0.00059523     -5417.9071534015 -2.97E-02
   143 Broy./Diag. 0.80E-01    1.5     0.00191025     -5417.9078405010 -6.87E-04
   144 Broy./Diag. 0.80E-01    1.5     0.00043558     -5417.9044414067  3.40E-03
   145 Broy./Diag. 0.80E-01    1.5     0.00314627     -5417.9072332748 -2.79E-03
   146 Broy./Diag. 0.80E-01    1.5     0.00278116     -5417.9220552101 -1.48E-02
   147 Broy./Diag. 0.80E-01    1.5     0.00536488     -5417.8892369703  3.28E-02
   148 Broy./Diag. 0.80E-01    1.5     0.00343755     -5417.9039029408 -1.47E-02
   149 Broy./Diag. 0.80E-01    1.5     0.01115428     -5417.9010598894  2.84E-03
   150 Broy./Diag. 0.80E-01    1.5     0.00366953     -5417.8059359738  9.51E-02
   151 Broy./Diag. 0.80E-01    1.5     0.00505051     -5417.8075306390 -1.59E-03
   152 Broy./Diag. 0.80E-01    1.5     0.00040902     -5417.8163091409 -8.78E-03
   153 Broy./Diag. 0.80E-01    1.5     0.00150961     -5417.8145159249  1.79E-03
   154 Broy./Diag. 0.80E-01    1.5     0.00200106     -5417.8270807484 -1.26E-02
   155 Broy./Diag. 0.80E-01    1.5     0.00038308     -5417.7898363879  3.72E-02
   156 Broy./Diag. 0.80E-01    1.5     0.00185899     -5417.8044723483 -1.46E-02
   157 Broy./Diag. 0.80E-01    1.5     0.00405935     -5417.8008364691  3.64E-03
   158 Broy./Diag. 0.80E-01    1.5     0.00253822     -5417.8058382860 -5.00E-03
   159 Broy./Diag. 0.80E-01    1.5     0.00276831     -5417.7971734219  8.66E-03
   160 Broy./Diag. 0.80E-01    1.5     0.00349657     -5417.8105572730 -1.34E-02
   161 Broy./Diag. 0.80E-01    1.5     0.00694105     -5417.7874472270  2.31E-02
   162 Broy./Diag. 0.80E-01    1.5     0.00819081     -5417.7472716951  4.02E-02
   163 Broy./Diag. 0.80E-01    1.5     0.01277251     -5417.8441514999 -9.69E-02
   164 Broy./Diag. 0.80E-01    1.5     0.00149814     -5417.8368186268  7.33E-03
   165 Broy./Diag. 0.80E-01    1.5     0.00362428     -5417.8354159846  1.40E-03
   166 Broy./Diag. 0.80E-01    1.5     0.01099231     -5417.8601209051 -2.47E-02
   167 Broy./Diag. 0.80E-01    1.5     0.00657316     -5417.8880964644 -2.80E-02
   168 Broy./Diag. 0.80E-01    1.5     0.00362744     -5417.8689191370  1.92E-02
   169 Broy./Diag. 0.80E-01    1.5     0.00659746     -5417.9100553184 -4.11E-02
   170 Broy./Diag. 0.80E-01    1.5     0.00623746     -5417.8936055389  1.64E-02
   171 Broy./Diag. 0.80E-01    1.5     0.01004310     -5417.8967993040 -3.19E-03
   172 Broy./Diag. 0.80E-01    1.5     0.01034362     -5417.8279137379  6.89E-02
   173 Broy./Diag. 0.80E-01    1.5     0.01265576     -5417.8705194600 -4.26E-02
   174 Broy./Diag. 0.80E-01    1.5     0.01615169     -5417.8275069829  4.30E-02
   175 Broy./Diag. 0.80E-01    1.5     0.01099895     -5417.9736115988 -1.46E-01
   176 Broy./Diag. 0.80E-01    1.5     0.02335861     -5417.8812669666  9.23E-02
   177 Broy./Diag. 0.80E-01    1.5     0.00348553     -5417.8435206840  3.77E-02
   178 Broy./Diag. 0.80E-01    1.5     0.00084918     -5417.8301844959  1.33E-02
   179 Broy./Diag. 0.80E-01    1.5     0.00175078     -5417.8239894151  6.20E-03
   180 Broy./Diag. 0.80E-01    1.5     0.00951203     -5417.8003947919  2.36E-02
   181 Broy./Diag. 0.80E-01    1.5     0.01344399     -5417.8717756606 -7.14E-02
   182 Broy./Diag. 0.80E-01    1.5     0.00817526     -5417.8410546293  3.07E-02
   183 Broy./Diag. 0.80E-01    1.5     0.01113276     -5417.8429913060 -1.94E-03
   184 Broy./Diag. 0.80E-01    1.5     0.00197592     -5417.8686770638 -2.57E-02
   185 Broy./Diag. 0.80E-01    1.5     0.00781249     -5417.8984573307 -2.98E-02
   186 Broy./Diag. 0.80E-01    1.5     0.01609927     -5417.9559051430 -5.74E-02
   187 Broy./Diag. 0.80E-01    1.5     0.00942940     -5417.8731761894  8.27E-02
   188 Broy./Diag. 0.80E-01    1.5     0.00789153     -5417.8604738333  1.27E-02
   189 Broy./Diag. 0.80E-01    1.5     0.00835327     -5417.8384057310  2.21E-02
   190 Broy./Diag. 0.80E-01    1.5     0.01465996     -5417.8156978390  2.27E-02
   191 Broy./Diag. 0.80E-01    1.5     0.00112695     -5417.8320985085 -1.64E-02
   192 Broy./Diag. 0.80E-01    1.5     0.01313374     -5417.8429522808 -1.09E-02
   193 Broy./Diag. 0.80E-01    1.5     0.01468325     -5417.8638456628 -2.09E-02
   194 Broy./Diag. 0.80E-01    1.5     0.01235291     -5417.8495522359  1.43E-02
   195 Broy./Diag. 0.80E-01    1.5     0.01123499     -5417.8331332530  1.64E-02
   196 Broy./Diag. 0.80E-01    1.5     0.01723403     -5417.9016974817 -6.86E-02
   197 Broy./Diag. 0.80E-01    1.5     0.01086522     -5417.7680838264  1.34E-01
   198 Broy./Diag. 0.80E-01    1.5     0.00845116     -5417.8059017460 -3.78E-02
   199 Broy./Diag. 0.80E-01    1.5     0.01246329     -5417.7798245108  2.61E-02
   200 Broy./Diag. 0.80E-01    1.5     0.00027323     -5417.7963020182 -1.65E-02
   201 Broy./Diag. 0.80E-01    1.5     0.02583101     -5417.7938743358  2.43E-03
   202 Broy./Diag. 0.80E-01    1.5     0.02237830     -5417.7725100532  2.14E-02
   203 Broy./Diag. 0.80E-01    1.5     0.01500858     -5417.8033942868 -3.09E-02
   204 Broy./Diag. 0.80E-01    1.5     0.02001380     -5417.8945141272 -9.11E-02
   205 Broy./Diag. 0.80E-01    1.5     0.02315084     -5417.8790993460  1.54E-02
   206 Broy./Diag. 0.80E-01    1.5     0.02579927     -5417.8074299202  7.17E-02
   207 Broy./Diag. 0.80E-01    1.5     0.00680342     -5417.7786948799  2.87E-02
   208 Broy./Diag. 0.80E-01    1.5     0.01400586     -5417.7592985250  1.94E-02
   209 Broy./Diag. 0.80E-01    1.5     0.00968455     -5417.8503814395 -9.11E-02
   210 Broy./Diag. 0.80E-01    1.5     0.00021482     -5417.8719982033 -2.16E-02
   211 Broy./Diag. 0.80E-01    1.5     0.00567144     -5417.8709416194  1.06E-03
   212 Broy./Diag. 0.80E-01    1.5     0.00828890     -5417.8899221630 -1.90E-02
   213 Broy./Diag. 0.80E-01    1.5     0.01801708     -5417.9519298548 -6.20E-02
   214 Broy./Diag. 0.80E-01    1.5     0.01775179     -5417.9414850441  1.04E-02
   215 Broy./Diag. 0.80E-01    1.5     0.01269747     -5417.8049458263  1.37E-01
   216 Broy./Diag. 0.80E-01    1.5     0.01296621     -5417.8335380260 -2.86E-02
   217 Broy./Diag. 0.80E-01    1.5     0.00712787     -5417.8637458051 -3.02E-02
   218 Broy./Diag. 0.80E-01    1.5     0.05810210     -5417.8913702814 -2.76E-02
   219 Broy./Diag. 0.80E-01    1.5     0.00287269     -5417.7481589955  1.43E-01
   220 Broy./Diag. 0.80E-01    1.5     0.03515590     -5417.7207613224  2.74E-02
   221 Broy./Diag. 0.80E-01    1.5     0.00963666     -5417.7568445854 -3.61E-02
   222 Broy./Diag. 0.80E-01    1.5     0.00285951     -5417.7115598187  4.53E-02
   223 Broy./Diag. 0.80E-01    1.5     0.00732110     -5417.6759489252  3.56E-02
   224 Broy./Diag. 0.80E-01    1.5     0.01062098     -5417.6717961549  4.15E-03
   225 Broy./Diag. 0.80E-01    1.5     0.01811397     -5417.7196266100 -4.78E-02
   226 Broy./Diag. 0.80E-01    1.5     0.02420392     -5417.7808618788 -6.12E-02
   227 Broy./Diag. 0.80E-01    1.5     0.00280227     -5417.7388557617  4.20E-02
   228 Broy./Diag. 0.80E-01    1.5     0.02204244     -5417.7332202713  5.64E-03
   229 Broy./Diag. 0.80E-01    1.5     0.00227339     -5417.7658163444 -3.26E-02
   230 Broy./Diag. 0.80E-01    1.5     0.01031700     -5417.7758282325 -1.00E-02
   231 Broy./Diag. 0.80E-01    1.5     0.01202481     -5417.7351607488  4.07E-02
   232 Broy./Diag. 0.80E-01    1.5     0.00424020     -5417.7675763488 -3.24E-02
   233 Broy./Diag. 0.80E-01    1.5     0.00235243     -5417.7357314183  3.18E-02
   234 Broy./Diag. 0.80E-01    1.5     0.00386876     -5417.7120969530  2.36E-02
   235 Broy./Diag. 0.80E-01    1.5     0.00274538     -5417.7427095828 -3.06E-02
   236 Broy./Diag. 0.80E-01    1.5     0.00484037     -5417.6476957562  9.50E-02
   237 Broy./Diag. 0.80E-01    1.5     0.00563545     -5417.6314477286  1.62E-02
   238 Broy./Diag. 0.80E-01    1.5     0.01009369     -5417.6492618281 -1.78E-02
   239 Broy./Diag. 0.80E-01    1.5     0.00312197     -5417.6371429306  1.21E-02
   240 Broy./Diag. 0.80E-01    1.5     0.00182796     -5417.6347890779  2.35E-03
   241 Broy./Diag. 0.80E-01    1.5     0.00901646     -5417.6496560198 -1.49E-02
   242 Broy./Diag. 0.80E-01    1.5     0.00301420     -5417.6834277358 -3.38E-02
   243 Broy./Diag. 0.80E-01    1.5     0.00691717     -5417.7077109071 -2.43E-02
   244 Broy./Diag. 0.80E-01    1.5     0.00655476     -5417.7799666535 -7.23E-02
   245 Broy./Diag. 0.80E-01    1.5     0.00742325     -5417.6967601644  8.32E-02
   246 Broy./Diag. 0.80E-01    1.5     0.00275001     -5417.7061036419 -9.34E-03
   247 Broy./Diag. 0.80E-01    1.5     0.00188197     -5417.6900823589  1.60E-02
   248 Broy./Diag. 0.80E-01    1.5     0.02478084     -5417.7098596139 -1.98E-02
   249 Broy./Diag. 0.80E-01    1.5     0.03613352     -5417.5485850549  1.61E-01
   250 Broy./Diag. 0.80E-01    1.5     0.00412885     -5417.7920798946 -2.43E-01
   251 Broy./Diag. 0.80E-01    1.5     0.00790999     -5417.7869637488  5.12E-03
   252 Broy./Diag. 0.80E-01    1.5     0.00604940     -5417.9207838161 -1.34E-01
   253 Broy./Diag. 0.80E-01    1.5     0.00365223     -5417.9240706887 -3.29E-03
   254 Broy./Diag. 0.80E-01    1.5     0.00640168     -5417.8806293574  4.34E-02
   255 Broy./Diag. 0.80E-01    1.5     0.00306364     -5417.9439910398 -6.34E-02
   256 Broy./Diag. 0.80E-01    1.5     0.01532186     -5417.9086193997  3.54E-02
   257 Broy./Diag. 0.80E-01    1.5     0.01046784     -5417.7971629695  1.11E-01
   258 Broy./Diag. 0.80E-01    1.5     0.01018788     -5417.8137739663 -1.66E-02
   259 Broy./Diag. 0.80E-01    1.5     0.02801087     -5417.7535889585  6.02E-02
   260 Broy./Diag. 0.80E-01    1.5     0.04469757     -5417.6469306308  1.07E-01
   261 Broy./Diag. 0.80E-01    1.5     0.01967557     -5417.7662988786 -1.19E-01
   262 Broy./Diag. 0.80E-01    1.5     0.01450150     -5417.8361792724 -6.99E-02
   263 Broy./Diag. 0.80E-01    1.5     0.01515397     -5417.9237305718 -8.76E-02
   264 Broy./Diag. 0.80E-01    1.5     0.01764752     -5417.7522010235  1.72E-01
   265 Broy./Diag. 0.80E-01    1.5     0.03468704     -5417.8310356755 -7.88E-02
   266 Broy./Diag. 0.80E-01    1.5     0.02518515     -5418.0320711206 -2.01E-01
   267 Broy./Diag. 0.80E-01    1.5     0.03676766     -5417.8267549182  2.05E-01
   268 Broy./Diag. 0.80E-01    1.5     0.01323571     -5417.7778217851  4.89E-02
   269 Broy./Diag. 0.80E-01    1.5     0.03434487     -5417.9130069063 -1.35E-01
   270 Broy./Diag. 0.80E-01    1.5     0.02944486     -5418.0882579532 -1.75E-01
   271 Broy./Diag. 0.80E-01    1.5     0.00980166     -5418.3668493515 -2.79E-01
   272 Broy./Diag. 0.80E-01    1.5     0.03314206     -5418.4397374906 -7.29E-02
   273 Broy./Diag. 0.80E-01    1.5     0.01379567     -5418.0234245787  4.16E-01
   274 Broy./Diag. 0.80E-01    1.5     0.04017684     -5418.1132138170 -8.98E-02
   275 Broy./Diag. 0.80E-01    1.5     0.03039509     -5418.1176349760 -4.42E-03
   276 Broy./Diag. 0.80E-01    1.5     0.03577963     -5418.1633613660 -4.57E-02
   277 Broy./Diag. 0.80E-01    1.5     0.03834487     -5418.2100087855 -4.66E-02
   278 Broy./Diag. 0.80E-01    1.5     0.03414300     -5417.8927680704  3.17E-01
   279 Broy./Diag. 0.80E-01    1.5     0.04792812     -5417.6061285010  2.87E-01
   280 Broy./Diag. 0.80E-01    1.5     0.00960900     -5417.9246333521 -3.19E-01
   281 Broy./Diag. 0.80E-01    1.5     0.01466190     -5417.8260680769  9.86E-02
   282 Broy./Diag. 0.80E-01    1.5     0.00716039     -5417.7286742227  9.74E-02
   283 Broy./Diag. 0.80E-01    1.5     0.01533246     -5417.7281252228  5.49E-04
   284 Broy./Diag. 0.80E-01    1.5     0.01556490     -5417.6721151233  5.60E-02
   285 Broy./Diag. 0.80E-01    1.5     0.01405134     -5417.7512311782 -7.91E-02
   286 Broy./Diag. 0.80E-01    1.5     0.03756779     -5417.7284698301  2.28E-02
   287 Broy./Diag. 0.80E-01    1.5     0.01654636     -5417.4931308844  2.35E-01
   288 Broy./Diag. 0.80E-01    1.5     0.02270950     -5417.5323078144 -3.92E-02
   289 Broy./Diag. 0.80E-01    1.5     0.01986034     -5417.6650808187 -1.33E-01
   290 Broy./Diag. 0.80E-01    1.5     0.00625042     -5417.7107403765 -4.57E-02
   291 Broy./Diag. 0.80E-01    1.5     0.03858924     -5417.8229500720 -1.12E-01
   292 Broy./Diag. 0.80E-01    1.5     0.01902708     -5418.1390720202 -3.16E-01
   293 Broy./Diag. 0.80E-01    1.5     0.02245769     -5417.9518242689  1.87E-01
   294 Broy./Diag. 0.80E-01    1.5     0.04428581     -5417.7713968094  1.80E-01
   295 Broy./Diag. 0.80E-01    1.5     0.09790777     -5418.0612403602 -2.90E-01
   296 Broy./Diag. 0.80E-01    1.5     0.02428805     -5417.6886864908  3.73E-01
   297 Broy./Diag. 0.80E-01    1.5     0.03516026     -5417.5242900000  1.64E-01
   298 Broy./Diag. 0.80E-01    1.5     0.03536170     -5417.1862685556  3.38E-01
   299 Broy./Diag. 0.80E-01    1.5     0.03155609     -5417.5161407305 -3.30E-01
   300 Broy./Diag. 0.80E-01    1.5     0.01253260     -5417.5431166582 -2.70E-02
   301 Broy./Diag. 0.80E-01    1.5     0.07681600     -5417.6292876226 -8.62E-02
   302 Broy./Diag. 0.80E-01    1.5     0.10748941     -5416.7671357607  8.62E-01
   303 Broy./Diag. 0.80E-01    1.5     0.03404001     -5417.4248216037 -6.58E-01
   304 Broy./Diag. 0.80E-01    1.5     0.15907072     -5417.6828711322 -2.58E-01
   305 Broy./Diag. 0.80E-01    1.5     0.01660053     -5416.3571389076  1.33E+00
   306 Broy./Diag. 0.80E-01    1.5     0.05781376     -5416.3167549696  4.04E-02
   307 Broy./Diag. 0.80E-01    1.5     0.00743280     -5415.5623008917  7.54E-01
   308 Broy./Diag. 0.80E-01    1.5     0.02908713     -5415.6008905517 -3.86E-02
   309 Broy./Diag. 0.80E-01    1.5     0.01811791     -5415.9488626578 -3.48E-01
   310 Broy./Diag. 0.80E-01    1.5     0.04397433     -5416.0881651426 -1.39E-01
   311 Broy./Diag. 0.80E-01    1.5     0.03556220     -5416.6791000374 -5.91E-01
   312 Broy./Diag. 0.80E-01    1.5     0.00570745     -5416.8453689986 -1.66E-01
   313 Broy./Diag. 0.80E-01    1.5     0.02314019     -5416.9073785307 -6.20E-02
   314 Broy./Diag. 0.80E-01    1.5     0.01241468     -5417.0343240926 -1.27E-01
   315 Broy./Diag. 0.80E-01    1.5     0.00400452     -5417.1135730854 -7.92E-02
   316 Broy./Diag. 0.80E-01    1.5     0.00839617     -5417.1706476289 -5.71E-02
   317 Broy./Diag. 0.80E-01    1.5     0.00609578     -5417.2594768127 -8.88E-02
   318 Broy./Diag. 0.80E-01    1.5     0.00727509     -5417.2901111504 -3.06E-02
   319 Broy./Diag. 0.80E-01    1.5     0.00491640     -5417.3632125107 -7.31E-02
   320 Broy./Diag. 0.80E-01    1.5     0.00316491     -5417.4632263490 -1.00E-01
   321 Broy./Diag. 0.80E-01    1.5     0.00455106     -5417.5422981753 -7.91E-02
   322 Broy./Diag. 0.80E-01    1.5     0.01705695     -5417.5568331032 -1.45E-02
   323 Broy./Diag. 0.80E-01    1.5     0.00434592     -5417.4134938129  1.43E-01
   324 Broy./Diag. 0.80E-01    1.5     0.00878778     -5417.5614913757 -1.48E-01
   325 Broy./Diag. 0.80E-01    1.5     0.01216093     -5417.6391909968 -7.77E-02
   326 Broy./Diag. 0.80E-01    1.5     0.00714481     -5417.5026627693  1.37E-01
   327 Broy./Diag. 0.80E-01    1.5     0.00995600     -5417.5309830111 -2.83E-02
   328 Broy./Diag. 0.80E-01    1.5     0.01206477     -5417.5149368243  1.60E-02
   329 Broy./Diag. 0.80E-01    1.5     0.01515446     -5417.3995026410  1.15E-01
   330 Broy./Diag. 0.80E-01    1.5     0.00448358     -5417.3198285246  7.97E-02
   331 Broy./Diag. 0.80E-01    1.5     0.00482207     -5417.4203164101 -1.00E-01
   332 Broy./Diag. 0.80E-01    1.5     0.00331258     -5417.4319302997 -1.16E-02
   333 Broy./Diag. 0.80E-01    1.5     0.00430711     -5417.3994357577  3.25E-02
   334 Broy./Diag. 0.80E-01    1.5     0.00130519     -5417.4738182158 -7.44E-02
   335 Broy./Diag. 0.80E-01    1.5     0.00150852     -5417.5082863147 -3.45E-02
   336 Broy./Diag. 0.80E-01    1.5     0.00641481     -5417.5300805453 -2.18E-02
   337 Broy./Diag. 0.80E-01    1.5     0.00695875     -5417.6814396283 -1.51E-01
   338 Broy./Diag. 0.80E-01    1.5     0.00229102     -5417.6481605411  3.33E-02
   339 Broy./Diag. 0.80E-01    1.5     0.00104144     -5417.4758202207  1.72E-01
   340 Broy./Diag. 0.80E-01    1.5     0.00888049     -5417.4437346110  3.21E-02
   341 Broy./Diag. 0.80E-01    1.5     0.00916350     -5417.3263533627  1.17E-01
   342 Broy./Diag. 0.80E-01    1.5     0.00558280     -5417.2285494751  9.78E-02
   343 Broy./Diag. 0.80E-01    1.5     0.00526949     -5417.4754831879 -2.47E-01
   344 Broy./Diag. 0.80E-01    1.5     0.00226882     -5417.4510744474  2.44E-02
   345 Broy./Diag. 0.80E-01    1.5     0.01065534     -5417.4850404751 -3.40E-02
   346 Broy./Diag. 0.80E-01    1.5     0.02147579     -5417.3725126774  1.13E-01
   347 Broy./Diag. 0.80E-01    1.5     0.00241873     -5417.4437069342 -7.12E-02
   348 Broy./Diag. 0.80E-01    1.5     0.00200320     -5417.3740474280  6.97E-02
   349 Broy./Diag. 0.80E-01    1.5     0.00275502     -5417.3528509565  2.12E-02
   350 Broy./Diag. 0.80E-01    1.5     0.00338318     -5417.2753686600  7.75E-02
   351 Broy./Diag. 0.80E-01    1.5     0.00444334     -5417.2714081809  3.96E-03
   352 Broy./Diag. 0.80E-01    1.5     0.03037807     -5417.3671609194 -9.58E-02
   353 Broy./Diag. 0.80E-01    1.5     0.00302717     -5417.8584290871 -4.91E-01
   354 Broy./Diag. 0.80E-01    1.5     0.01972124     -5417.9342025663 -7.58E-02
   355 Broy./Diag. 0.80E-01    1.5     0.01304290     -5418.0093033093 -7.51E-02
   356 Broy./Diag. 0.80E-01    1.5     0.00647824     -5417.7712115006  2.38E-01
   357 Broy./Diag. 0.80E-01    1.5     0.00312297     -5417.7938765510 -2.27E-02
   358 Broy./Diag. 0.80E-01    1.5     0.01027626     -5417.9289548361 -1.35E-01
   359 Broy./Diag. 0.80E-01    1.5     0.02006334     -5417.7886775148  1.40E-01
   360 Broy./Diag. 0.80E-01    1.5     0.00725676     -5417.8810112425 -9.23E-02
   361 Broy./Diag. 0.80E-01    1.5     0.00952676     -5417.8579978109  2.30E-02
   362 Broy./Diag. 0.80E-01    1.5     0.00069589     -5417.9433130280 -8.53E-02
   363 Broy./Diag. 0.80E-01    1.5     0.00267245     -5417.9401186773  3.19E-03
   364 Broy./Diag. 0.80E-01    1.5     0.01816193     -5417.9792500283 -3.91E-02
   365 Broy./Diag. 0.80E-01    1.5     0.00780610     -5417.8418658303  1.37E-01
   366 Broy./Diag. 0.80E-01    1.5     0.01298103     -5417.9002596247 -5.84E-02
   367 Broy./Diag. 0.80E-01    1.5     0.01776958     -5417.8808897337  1.94E-02
   368 Broy./Diag. 0.80E-01    1.5     0.01607356     -5417.9143963883 -3.35E-02
   369 Broy./Diag. 0.80E-01    1.5     0.01170093     -5417.9787435121 -6.43E-02
   370 Broy./Diag. 0.80E-01    1.5     0.01831693     -5418.0857018448 -1.07E-01
   371 Broy./Diag. 0.80E-01    1.5     0.01113544     -5417.9163220268  1.69E-01
