 DBCSR| CPU Multiplication driver                                           XSMM (U)
 DBCSR| Multrec recursion limit                                              512 (U)
 DBCSR| Multiplication stack size                                           1000 (D)
 DBCSR| Maximum elements for images                                    UNLIMITED (U)
 DBCSR| Multiplicative factor virtual images                                   1 (U)
 DBCSR| Use multiplication densification                                       T (D)
 DBCSR| Multiplication size stacks                                             3 (U)
 DBCSR| Use memory pool for CPU allocation                                     F (U)
 DBCSR| Number of 3D layers                                               SINGLE (U)
 DBCSR| Use MPI memory allocation                                              F (U)
 DBCSR| Use RMA algorithm                                                      F (U)
 DBCSR| Use Communication thread                                               T (U)
 DBCSR| Communication thread load                                             87 (D)
 DBCSR| MPI: My process id                                                     0
 DBCSR| MPI: Number of processes                                             128
 DBCSR| OMP: Current number of threads                                         1
 DBCSR| OMP: Max number of threads                                             1
 DBCSR| Split modifier for TAS multiplication algorithm                  1.0E+00 (U)


  **** **** ******  **  PROGRAM STARTED AT               2023-02-15 17:11:37.662
 ***** ** ***  *** **   PROGRAM STARTED ON                             nid006108
 **    ****   ******    PROGRAM STARTED BY                                cahart
 ***** **    ** ** **   PROGRAM PROCESS ID                                180771
  **** **  *******  **  PROGRAM STARTED IN /mnt/lustre/a2fs-work2/work/e05/e05/c
                                           ahart/postdoc/masters/ni/archer2/slab
                                           /optimise/magnetisation/scf_1e-4_temp
                                           -2000_mos-1000_alpha-0.08_beta-1.5_pe
                                           riodic-xyz/search/0.77_0.8

 CP2K| version string:                 CP2K version 2023.1 (Development Version)
 CP2K| source code revision number:                                  git:964cd58
 CP2K| cp2kflags: omp libint fftw3 libxc elpa parallel scalapack xsmm plumed2 mk
 CP2K|            l
 CP2K| is freely available from                            https://www.cp2k.org/
 CP2K| Program compiled at                          Mon 13 Feb 17:05:14 GMT 2023
 CP2K| Program compiled on                                                  ln01
 CP2K| Program compiled for                                              ARCHER2
 CP2K| Data directory path    /work/e05/e05/cahart/cp2k/cp2k-2023.1/cp2k-2023.1-
 CP2K| Input file name                                                  cp2k.inp

 GLOBAL| Force Environment number                                              1
 GLOBAL| Basis set file name                                        BASIS_MOLOPT
 GLOBAL| Potential file name                                      GTH_POTENTIALS
 GLOBAL| MM Potential file name                                     MM_POTENTIAL
 GLOBAL| Coordinate file name                                      __STD_INPUT__
 GLOBAL| Method name                                                        CP2K
 GLOBAL| Project name                                                    Ni_bulk
 GLOBAL| Run type                                                         ENERGY
 GLOBAL| FFT library                                                       FFTW3
 GLOBAL| Diagonalization library                                            ELPA
 GLOBAL| DGEMM library                                                      BLAS
 GLOBAL| Minimum number of eigenvectors for ELPA usage                        16
 GLOBAL| Orthonormality check for eigenvectors                          DISABLED
 GLOBAL| Matrix multiplication library                                 ScaLAPACK
 GLOBAL| All-to-all communication in single precision                          F
 GLOBAL| FFTs using library dependent lengths                                  F
 GLOBAL| Grid backend                                                       AUTO
 GLOBAL| Global print level                                               MEDIUM
 GLOBAL| MPI I/O enabled                                                       T
 GLOBAL| Total number of message passing processes                           128
 GLOBAL| Number of threads for this process                                    1
 GLOBAL| This output is from process                                           0
 GLOBAL| Stack size for threads created by OpenMP (OMP_STACKSIZE)        default
 GLOBAL| CPU model name                          AMD EPYC 7742 64-Core Processor
 GLOBAL| CPUID                                                              1002

 MEMORY| system memory details [Kb]
 MEMORY|                        rank 0           min           max       average
 MEMORY| MemTotal            263528084     263528084     263528084     263528084
 MEMORY| MemFree             238536036     238536036     238536036     238536036
 MEMORY| Buffers                 25388         25388         25388         25388
 MEMORY| Cached                 831000        831000        831000        831000
 MEMORY| Slab                  1674748       1674748       1674748       1674748
 MEMORY| SReclaimable           140476        140476        140476        140476
 MEMORY| MemLikelyFree       239532900     239532900     239532900     239532900


 *** Fundamental physical constants (SI units) ***

 *** Literature: B. J. Mohr and B. N. Taylor,
 ***             CODATA recommended values of the fundamental physical
 ***             constants: 2006, Web Version 5.1
 ***             http://physics.nist.gov/constants

 Speed of light in vacuum [m/s]                             2.99792458000000E+08
 Magnetic constant or permeability of vacuum [N/A**2]       1.25663706143592E-06
 Electric constant or permittivity of vacuum [F/m]          8.85418781762039E-12
 Planck constant (h) [J*s]                                  6.62606896000000E-34
 Planck constant (h-bar) [J*s]                              1.05457162825177E-34
 Elementary charge [C]                                      1.60217648700000E-19
 Electron mass [kg]                                         9.10938215000000E-31
 Electron g factor [ ]                                     -2.00231930436220E+00
 Proton mass [kg]                                           1.67262163700000E-27
 Fine-structure constant                                    7.29735253760000E-03
 Rydberg constant [1/m]                                     1.09737315685270E+07
 Avogadro constant [1/mol]                                  6.02214179000000E+23
 Boltzmann constant [J/K]                                   1.38065040000000E-23
 Atomic mass unit [kg]                                      1.66053878200000E-27
 Bohr radius [m]                                            5.29177208590000E-11

 *** Conversion factors ***

 [u] -> [a.u.]                                              1.82288848426455E+03
 [Angstrom] -> [Bohr] = [a.u.]                              1.88972613288564E+00
 [a.u.] = [Bohr] -> [Angstrom]                              5.29177208590000E-01
 [a.u.] -> [s]                                              2.41888432650478E-17
 [a.u.] -> [fs]                                             2.41888432650478E-02
 [a.u.] -> [J]                                              4.35974393937059E-18
 [a.u.] -> [N]                                              8.23872205491840E-08
 [a.u.] -> [K]                                              3.15774647902944E+05
 [a.u.] -> [kJ/mol]                                         2.62549961709828E+03
 [a.u.] -> [kcal/mol]                                       6.27509468713739E+02
 [a.u.] -> [Pa]                                             2.94210107994716E+13
 [a.u.] -> [bar]                                            2.94210107994716E+08
 [a.u.] -> [atm]                                            2.90362800883016E+08
 [a.u.] -> [eV]                                             2.72113838565563E+01
 [a.u.] -> [Hz]                                             6.57968392072181E+15
 [a.u.] -> [1/cm] (wave numbers)                            2.19474631370540E+05
 [a.u./Bohr**2] -> [1/cm]                                   5.14048714338585E+03
 

 CELL_TOP| Volume [angstrom^3]:                                       983.249569
 CELL_TOP| Vector a [angstrom     7.012     0.000     0.000   |a| =     7.011596
 CELL_TOP| Vector b [angstrom     0.000     7.012     0.000   |b| =     7.011596
 CELL_TOP| Vector c [angstrom     0.000     0.000    20.000   |c| =    20.000000
 CELL_TOP| Angle (b,c), alpha [degree]:                                90.000000
 CELL_TOP| Angle (a,c), beta  [degree]:                                90.000000
 CELL_TOP| Angle (a,b), gamma [degree]:                                90.000000
 CELL_TOP| Numerically orthorhombic:                                         YES
 CELL_TOP| Periodicity                                                       XYZ

 GENERATE|  Preliminary Number of Bonds generated:                             0
 GENERATE|  Achieved consistency in connectivity generation.

 CELL| Volume [angstrom^3]:                                           983.249569
 CELL| Vector a [angstrom]:       7.012     0.000     0.000   |a| =     7.011596
 CELL| Vector b [angstrom]:       0.000     7.012     0.000   |b| =     7.011596
 CELL| Vector c [angstrom]:       0.000     0.000    20.000   |c| =    20.000000
 CELL| Angle (b,c), alpha [degree]:                                    90.000000
 CELL| Angle (a,c), beta  [degree]:                                    90.000000
 CELL| Angle (a,b), gamma [degree]:                                    90.000000
 CELL| Numerically orthorhombic:                                             YES
 CELL| Periodicity                                                           XYZ

 CELL_REF| Volume [angstrom^3]:                                       983.249569
 CELL_REF| Vector a [angstrom     7.012     0.000     0.000   |a| =     7.011596
 CELL_REF| Vector b [angstrom     0.000     7.012     0.000   |b| =     7.011596
 CELL_REF| Vector c [angstrom     0.000     0.000    20.000   |c| =    20.000000
 CELL_REF| Angle (b,c), alpha [degree]:                                90.000000
 CELL_REF| Angle (a,c), beta  [degree]:                                90.000000
 CELL_REF| Angle (a,b), gamma [degree]:                                90.000000
 CELL_REF| Numerically orthorhombic:                                         YES
 CELL_REF| Periodicity                                                       XYZ

 *** WARNING in cryssym.F:165 :: Symmetry library SPGLIB not available ***


 *******************************************************************************
                                    Kpoints
 *******************************************************************************
 BRILLOUIN| K-point scheme                                        Monkhorst-Pack
 BRILLOUIN| K-Point grid                                             4    4    1
 BRILLOUIN| Accuracy in Symmetry determination                      0.100000E-05
 BRILLOUIN| K-Point point group symmetrization                               OFF
 BRILLOUIN| Wavefunction type                                            COMPLEX
 BRILLOUIN| List of Kpoints [2 Pi/Bohr]                                        8
 BRILLOUIN| Number           Weight            X              Y              Z
 BRILLOUIN|     1           0.12500       -0.37500       -0.37500        0.00000
 BRILLOUIN|     2           0.12500       -0.37500       -0.12500        0.00000
 BRILLOUIN|     3           0.12500       -0.37500        0.12500        0.00000
 BRILLOUIN|     4           0.12500       -0.37500        0.37500        0.00000
 BRILLOUIN|     5           0.12500       -0.12500       -0.37500        0.00000
 BRILLOUIN|     6           0.12500       -0.12500       -0.12500        0.00000
 BRILLOUIN|     7           0.12500       -0.12500        0.12500        0.00000
 BRILLOUIN|     8           0.12500       -0.12500        0.37500        0.00000
 *******************************************************************************

 *******************************************************************************
 *******************************************************************************
 **                                                                           **
 **     #####                         ##              ##                      **
 **    ##   ##            ##          ##              ##                      **
 **   ##     ##                       ##            ######                    **
 **   ##     ##  ##   ##  ##   #####  ##  ##   ####   ##    #####    #####    **
 **   ##     ##  ##   ##  ##  ##      ## ##   ##      ##   ##   ##  ##   ##   **
 **   ##  ## ##  ##   ##  ##  ##      ####     ###    ##   ######   ######    **
 **    ##  ###   ##   ##  ##  ##      ## ##      ##   ##   ##       ##        **
 **     #######   #####   ##   #####  ##  ##  ####    ##    #####   ##        **
 **           ##                                                    ##        **
 **                                                                           **
 **                                                ... make the atoms dance   **
 **                                                                           **
 **            Copyright (C) by CP2K developers group (2000-2023)             **
 **                      J. Chem. Phys. 152, 194103 (2020)                    **
 **                                                                           **
 *******************************************************************************

 *** WARNING in qs_environment.F:1456 :: Number of electrons will be ***
 *** overwritten by NELEC_ALPHA and NELEC_BETA, multiplicity will be ***
 *** ignored.                                                        ***

 Number of electrons should be                                               576
 Sum of NELEC_ALPHA and NELEC_BETA is                                    576.000

 *** WARNING in qs_environment.F:1488 :: NELEC_ALPHA is not an integer, ***
 *** many features will not be supported.                               ***


 *** WARNING in qs_environment.F:1500 :: NELEC_BETA is not an integer, ***
 *** many features will not be supported.                              ***


 *** WARNING in qs_environment.F:1532 :: More ADDED_MOs requested for beta ***
 *** spin than available.                                                  ***


 *** WARNING in qs_environment.F:1548 :: More added MOs requested than     ***
 *** available. The full set of unoccupied MOs will be used. Use           ***
 *** 'ADDED_MOS -1' to always use all available MOs and to get rid of this ***
 *** warning.                                                              ***


 DFT| Spin unrestricted (spin-polarized) Kohn-Sham calculation               UKS
 DFT| Multiplicity                                                             1
 DFT| Number of spin states                                                    2
 DFT| Charge                                                                   0
 DFT| Self-interaction correction (SIC)                                       NO
 DFT| Cutoffs: density                                              1.000000E-10
 DFT|          gradient                                             1.000000E-10
 DFT|          tau                                                  1.000000E-10
 DFT|          cutoff_smoothing_range                               0.000000E+00
 DFT| XC density smoothing                                                  NONE
 DFT| XC derivatives                                                          PW

 FUNCTIONAL| PBE:
 FUNCTIONAL| J.P.Perdew, K.Burke, M.Ernzerhof, Phys. Rev. Letter, vol. 77, n 18,
 FUNCTIONAL|  pp. 3865-3868, (1996){spin polarized}                             

 vdW POTENTIAL|                                                   Pair Potential
 vdW POTENTIAL|          DFT-D3 (Version 3.1)
 vdW POTENTIAL|          Potential Form: S. Grimme et al, JCP 132: 154104 (2010)
 vdW POTENTIAL|          Zero Damping
 vdW POTENTIAL|          Cutoff Radius [Bohr]:                             20.00
 vdW POTENTIAL|          s6 Scaling Factor:                               1.0000
 vdW POTENTIAL|          sr6 Scaling Factor:                              1.2170
 vdW POTENTIAL|          s8 Scaling Factor:                               0.7220
 vdW POTENTIAL|          Cutoff for CN calculation:                   0.1000E-05

 QS| Method:                                                                 GPW
 QS| Density plane wave grid type                        NON-SPHERICAL FULLSPACE
 QS| Number of grid levels:                                                    5
 QS| Density cutoff [a.u.]:                                                300.0
 QS| Multi grid cutoff [a.u.]: 1) grid level                               300.0
 QS|                           2) grid level                               100.0
 QS|                           3) grid level                                33.3
 QS|                           4) grid level                                11.1
 QS|                           5) grid level                                 3.7
 QS| Grid level progression factor:                                          3.0
 QS| Relative density cutoff [a.u.]:                                        30.0
 QS| Interaction thresholds: eps_pgf_orb:                                1.0E-06
 QS|                         eps_filter_matrix:                          0.0E+00
 QS|                         eps_core_charge:                            1.0E-14
 QS|                         eps_rho_gspace:                             1.0E-12
 QS|                         eps_rho_rspace:                             1.0E-12
 QS|                         eps_gvg_rspace:                             1.0E-06
 QS|                         eps_ppl:                                    1.0E-02
 QS|                         eps_ppnl:                                   1.0E-08


 ATOMIC KIND INFORMATION

  1. Atomic kind: Ni_i                                  Number of atoms:      16

     Orbital Basis Set                                        DZVP-MOLOPT-SR-GTH

       Number of orbital shell sets:                                           1
       Number of orbital shells:                                               8
       Number of primitive Cartesian functions:                                6
       Number of Cartesian basis functions:                                   31
       Number of spherical basis functions:                                   26
       Norm type:                                                              2

       Normalised Cartesian orbitals:

                        Set   Shell   Orbital            Exponent    Coefficient

                          1       1    2s               10.077428      -0.684558
                                                         5.847736      -0.844524
                                                         2.494033       1.088856
                                                         0.988355       0.395503
                                                         0.344978       0.010224
                                                         0.099466      -0.003250

                          1       2    3s               10.077428       0.096747
                                                         5.847736       0.162504
                                                         2.494033      -0.297192
                                                         0.988355      -0.319752
                                                         0.344978       0.088318
                                                         0.099466       0.118587

                          1       3    4s               10.077428       0.036437
                                                         5.847736      -0.381480
                                                         2.494033       0.003759
                                                         0.988355      -1.048256
                                                         0.344978       0.855825
                                                         0.099466      -0.176350

                          1       4    3px              10.077428      -3.133913
                                                         5.847736       3.027656
                                                         2.494033       2.353227
                                                         0.988355       0.554184
                                                         0.344978       0.019462
                                                         0.099466      -0.000291
                          1       4    3py              10.077428      -3.133913
                                                         5.847736       3.027656
                                                         2.494033       2.353227
                                                         0.988355       0.554184
                                                         0.344978       0.019462
                                                         0.099466      -0.000291
                          1       4    3pz              10.077428      -3.133913
                                                         5.847736       3.027656
                                                         2.494033       2.353227
                                                         0.988355       0.554184
                                                         0.344978       0.019462
                                                         0.099466      -0.000291

                          1       5    4px              10.077428      -0.112729
                                                         5.847736      -0.114008
                                                         2.494033      -0.347303
                                                         0.988355      -0.110323
                                                         0.344978       0.154096
                                                         0.099466       0.058386
                          1       5    4py              10.077428      -0.112729
                                                         5.847736      -0.114008
                                                         2.494033      -0.347303
                                                         0.988355      -0.110323
                                                         0.344978       0.154096
                                                         0.099466       0.058386
                          1       5    4pz              10.077428      -0.112729
                                                         5.847736      -0.114008
                                                         2.494033      -0.347303
                                                         0.988355      -0.110323
                                                         0.344978       0.154096
                                                         0.099466       0.058386

                          1       6    4dx2             10.077428       8.232726
                                                         5.847736       9.105758
                                                         2.494033       2.849835
                                                         0.988355       0.554319
                                                         0.344978       0.067245
                                                         0.099466       0.001940
                          1       6    4dxy             10.077428      14.259500
                                                         5.847736      15.771636
                                                         2.494033       4.936060
                                                         0.988355       0.960109
                                                         0.344978       0.116472
                                                         0.099466       0.003360
                          1       6    4dxz             10.077428      14.259500
                                                         5.847736      15.771636
                                                         2.494033       4.936060
                                                         0.988355       0.960109
                                                         0.344978       0.116472
                                                         0.099466       0.003360
                          1       6    4dy2             10.077428       8.232726
                                                         5.847736       9.105758
                                                         2.494033       2.849835
                                                         0.988355       0.554319
                                                         0.344978       0.067245
                                                         0.099466       0.001940
                          1       6    4dyz             10.077428      14.259500
                                                         5.847736      15.771636
                                                         2.494033       4.936060
                                                         0.988355       0.960109
                                                         0.344978       0.116472
                                                         0.099466       0.003360
                          1       6    4dz2             10.077428       8.232726
                                                         5.847736       9.105758
                                                         2.494033       2.849835
                                                         0.988355       0.554319
                                                         0.344978       0.067245
                                                         0.099466       0.001940

                          1       7    5dx2             10.077428      -2.715373
                                                         5.847736      -4.020640
                                                         2.494033      -1.397569
                                                         0.988355      -0.076143
                                                         0.344978       0.033435
                                                         0.099466       0.026032
                          1       7    5dxy             10.077428      -4.703164
                                                         5.847736      -6.963952
                                                         2.494033      -2.420661
                                                         0.988355      -0.131883
                                                         0.344978       0.057911
                                                         0.099466       0.045088
                          1       7    5dxz             10.077428      -4.703164
                                                         5.847736      -6.963952
                                                         2.494033      -2.420661
                                                         0.988355      -0.131883
                                                         0.344978       0.057911
                                                         0.099466       0.045088
                          1       7    5dy2             10.077428      -2.715373
                                                         5.847736      -4.020640
                                                         2.494033      -1.397569
                                                         0.988355      -0.076143
                                                         0.344978       0.033435
                                                         0.099466       0.026032
                          1       7    5dyz             10.077428      -4.703164
                                                         5.847736      -6.963952
                                                         2.494033      -2.420661
                                                         0.988355      -0.131883
                                                         0.344978       0.057911
                                                         0.099466       0.045088
                          1       7    5dz2             10.077428      -2.715373
                                                         5.847736      -4.020640
                                                         2.494033      -1.397569
                                                         0.988355      -0.076143
                                                         0.344978       0.033435
                                                         0.099466       0.026032

                          1       8    5fx3             10.077428      -0.467694
                                                         5.847736       0.618100
                                                         2.494033       0.066069
                                                         0.988355       0.262898
                                                         0.344978       0.004720
                                                         0.099466       0.007748
                          1       8    5fx2y            10.077428      -1.045795
                                                         5.847736       1.382114
                                                         2.494033       0.147734
                                                         0.988355       0.587859
                                                         0.344978       0.010555
                                                         0.099466       0.017325
                          1       8    5fx2z            10.077428      -1.045795
                                                         5.847736       1.382114
                                                         2.494033       0.147734
                                                         0.988355       0.587859
                                                         0.344978       0.010555
                                                         0.099466       0.017325
                          1       8    5fxy2            10.077428      -1.045795
                                                         5.847736       1.382114
                                                         2.494033       0.147734
                                                         0.988355       0.587859
                                                         0.344978       0.010555
                                                         0.099466       0.017325
                          1       8    5fxyz            10.077428      -1.811371
                                                         5.847736       2.393892
                                                         2.494033       0.255883
                                                         0.988355       1.018201
                                                         0.344978       0.018282
                                                         0.099466       0.030008
                          1       8    5fxz2            10.077428      -1.045795
                                                         5.847736       1.382114
                                                         2.494033       0.147734
                                                         0.988355       0.587859
                                                         0.344978       0.010555
                                                         0.099466       0.017325
                          1       8    5fy3             10.077428      -0.467694
                                                         5.847736       0.618100
                                                         2.494033       0.066069
                                                         0.988355       0.262898
                                                         0.344978       0.004720
                                                         0.099466       0.007748
                          1       8    5fy2z            10.077428      -1.045795
                                                         5.847736       1.382114
                                                         2.494033       0.147734
                                                         0.988355       0.587859
                                                         0.344978       0.010555
                                                         0.099466       0.017325
                          1       8    5fyz2            10.077428      -1.045795
                                                         5.847736       1.382114
                                                         2.494033       0.147734
                                                         0.988355       0.587859
                                                         0.344978       0.010555
                                                         0.099466       0.017325
                          1       8    5fz3             10.077428      -0.467694
                                                         5.847736       0.618100
                                                         2.494033       0.066069
                                                         0.988355       0.262898
                                                         0.344978       0.004720
                                                         0.099466       0.007748

       Atomic covalent radius [Angstrom]:                                  1.150

       Atomic van der Waals radius [Angstrom]:                             1.630

     GTH Potential information for                                   GTH-PBE-q18

       Description:                       Goedecker-Teter-Hutter pseudopotential
                                           Goedecker et al., PRB 54, 1703 (1996)
                                          Hartwigsen et al., PRB 58, 3641 (1998)
                                                      Krack, TCA 114, 145 (2005)

       Gaussian exponent of the core charge distribution:               4.081633
       Electronic configuration (s p d ...):                           4   6   8

       Parameters of the local part of the GTH pseudopotential:

                          rloc        C1          C2          C3          C4
                        0.350000    2.102166    0.648484

       Parameters of the non-local part of the GTH pseudopotential:

                   l      r(l)      h(i,j,l)

                   0    0.261295    0.622658    9.970227
                                    9.970227  -12.871507
                   1    0.224253  -11.142708   12.429566
                                   12.429566  -14.706861
                   2    0.215348  -12.628146

  2. Atomic kind: Ni_b                                  Number of atoms:      16

     Orbital Basis Set                                        DZVP-MOLOPT-SR-GTH

       Number of orbital shell sets:                                           1
       Number of orbital shells:                                               8
       Number of primitive Cartesian functions:                                6
       Number of Cartesian basis functions:                                   31
       Number of spherical basis functions:                                   26
       Norm type:                                                              2

       Normalised Cartesian orbitals:

                        Set   Shell   Orbital            Exponent    Coefficient

                          1       1    2s               10.077428      -0.684558
                                                         5.847736      -0.844524
                                                         2.494033       1.088856
                                                         0.988355       0.395503
                                                         0.344978       0.010224
                                                         0.099466      -0.003250

                          1       2    3s               10.077428       0.096747
                                                         5.847736       0.162504
                                                         2.494033      -0.297192
                                                         0.988355      -0.319752
                                                         0.344978       0.088318
                                                         0.099466       0.118587

                          1       3    4s               10.077428       0.036437
                                                         5.847736      -0.381480
                                                         2.494033       0.003759
                                                         0.988355      -1.048256
                                                         0.344978       0.855825
                                                         0.099466      -0.176350

                          1       4    3px              10.077428      -3.133913
                                                         5.847736       3.027656
                                                         2.494033       2.353227
                                                         0.988355       0.554184
                                                         0.344978       0.019462
                                                         0.099466      -0.000291
                          1       4    3py              10.077428      -3.133913
                                                         5.847736       3.027656
                                                         2.494033       2.353227
                                                         0.988355       0.554184
                                                         0.344978       0.019462
                                                         0.099466      -0.000291
                          1       4    3pz              10.077428      -3.133913
                                                         5.847736       3.027656
                                                         2.494033       2.353227
                                                         0.988355       0.554184
                                                         0.344978       0.019462
                                                         0.099466      -0.000291

                          1       5    4px              10.077428      -0.112729
                                                         5.847736      -0.114008
                                                         2.494033      -0.347303
                                                         0.988355      -0.110323
                                                         0.344978       0.154096
                                                         0.099466       0.058386
                          1       5    4py              10.077428      -0.112729
                                                         5.847736      -0.114008
                                                         2.494033      -0.347303
                                                         0.988355      -0.110323
                                                         0.344978       0.154096
                                                         0.099466       0.058386
                          1       5    4pz              10.077428      -0.112729
                                                         5.847736      -0.114008
                                                         2.494033      -0.347303
                                                         0.988355      -0.110323
                                                         0.344978       0.154096
                                                         0.099466       0.058386

                          1       6    4dx2             10.077428       8.232726
                                                         5.847736       9.105758
                                                         2.494033       2.849835
                                                         0.988355       0.554319
                                                         0.344978       0.067245
                                                         0.099466       0.001940
                          1       6    4dxy             10.077428      14.259500
                                                         5.847736      15.771636
                                                         2.494033       4.936060
                                                         0.988355       0.960109
                                                         0.344978       0.116472
                                                         0.099466       0.003360
                          1       6    4dxz             10.077428      14.259500
                                                         5.847736      15.771636
                                                         2.494033       4.936060
                                                         0.988355       0.960109
                                                         0.344978       0.116472
                                                         0.099466       0.003360
                          1       6    4dy2             10.077428       8.232726
                                                         5.847736       9.105758
                                                         2.494033       2.849835
                                                         0.988355       0.554319
                                                         0.344978       0.067245
                                                         0.099466       0.001940
                          1       6    4dyz             10.077428      14.259500
                                                         5.847736      15.771636
                                                         2.494033       4.936060
                                                         0.988355       0.960109
                                                         0.344978       0.116472
                                                         0.099466       0.003360
                          1       6    4dz2             10.077428       8.232726
                                                         5.847736       9.105758
                                                         2.494033       2.849835
                                                         0.988355       0.554319
                                                         0.344978       0.067245
                                                         0.099466       0.001940

                          1       7    5dx2             10.077428      -2.715373
                                                         5.847736      -4.020640
                                                         2.494033      -1.397569
                                                         0.988355      -0.076143
                                                         0.344978       0.033435
                                                         0.099466       0.026032
                          1       7    5dxy             10.077428      -4.703164
                                                         5.847736      -6.963952
                                                         2.494033      -2.420661
                                                         0.988355      -0.131883
                                                         0.344978       0.057911
                                                         0.099466       0.045088
                          1       7    5dxz             10.077428      -4.703164
                                                         5.847736      -6.963952
                                                         2.494033      -2.420661
                                                         0.988355      -0.131883
                                                         0.344978       0.057911
                                                         0.099466       0.045088
                          1       7    5dy2             10.077428      -2.715373
                                                         5.847736      -4.020640
                                                         2.494033      -1.397569
                                                         0.988355      -0.076143
                                                         0.344978       0.033435
                                                         0.099466       0.026032
                          1       7    5dyz             10.077428      -4.703164
                                                         5.847736      -6.963952
                                                         2.494033      -2.420661
                                                         0.988355      -0.131883
                                                         0.344978       0.057911
                                                         0.099466       0.045088
                          1       7    5dz2             10.077428      -2.715373
                                                         5.847736      -4.020640
                                                         2.494033      -1.397569
                                                         0.988355      -0.076143
                                                         0.344978       0.033435
                                                         0.099466       0.026032

                          1       8    5fx3             10.077428      -0.467694
                                                         5.847736       0.618100
                                                         2.494033       0.066069
                                                         0.988355       0.262898
                                                         0.344978       0.004720
                                                         0.099466       0.007748
                          1       8    5fx2y            10.077428      -1.045795
                                                         5.847736       1.382114
                                                         2.494033       0.147734
                                                         0.988355       0.587859
                                                         0.344978       0.010555
                                                         0.099466       0.017325
                          1       8    5fx2z            10.077428      -1.045795
                                                         5.847736       1.382114
                                                         2.494033       0.147734
                                                         0.988355       0.587859
                                                         0.344978       0.010555
                                                         0.099466       0.017325
                          1       8    5fxy2            10.077428      -1.045795
                                                         5.847736       1.382114
                                                         2.494033       0.147734
                                                         0.988355       0.587859
                                                         0.344978       0.010555
                                                         0.099466       0.017325
                          1       8    5fxyz            10.077428      -1.811371
                                                         5.847736       2.393892
                                                         2.494033       0.255883
                                                         0.988355       1.018201
                                                         0.344978       0.018282
                                                         0.099466       0.030008
                          1       8    5fxz2            10.077428      -1.045795
                                                         5.847736       1.382114
                                                         2.494033       0.147734
                                                         0.988355       0.587859
                                                         0.344978       0.010555
                                                         0.099466       0.017325
                          1       8    5fy3             10.077428      -0.467694
                                                         5.847736       0.618100
                                                         2.494033       0.066069
                                                         0.988355       0.262898
                                                         0.344978       0.004720
                                                         0.099466       0.007748
                          1       8    5fy2z            10.077428      -1.045795
                                                         5.847736       1.382114
                                                         2.494033       0.147734
                                                         0.988355       0.587859
                                                         0.344978       0.010555
                                                         0.099466       0.017325
                          1       8    5fyz2            10.077428      -1.045795
                                                         5.847736       1.382114
                                                         2.494033       0.147734
                                                         0.988355       0.587859
                                                         0.344978       0.010555
                                                         0.099466       0.017325
                          1       8    5fz3             10.077428      -0.467694
                                                         5.847736       0.618100
                                                         2.494033       0.066069
                                                         0.988355       0.262898
                                                         0.344978       0.004720
                                                         0.099466       0.007748

       Atomic covalent radius [Angstrom]:                                  1.150

       Atomic van der Waals radius [Angstrom]:                             1.630

     GTH Potential information for                                   GTH-PBE-q18

       Description:                       Goedecker-Teter-Hutter pseudopotential
                                           Goedecker et al., PRB 54, 1703 (1996)
                                          Hartwigsen et al., PRB 58, 3641 (1998)
                                                      Krack, TCA 114, 145 (2005)

       Gaussian exponent of the core charge distribution:               4.081633
       Electronic configuration (s p d ...):                           4   6   8

       Parameters of the local part of the GTH pseudopotential:

                          rloc        C1          C2          C3          C4
                        0.350000    2.102166    0.648484

       Parameters of the non-local part of the GTH pseudopotential:

                   l      r(l)      h(i,j,l)

                   0    0.261295    0.622658    9.970227
                                    9.970227  -12.871507
                   1    0.224253  -11.142708   12.429566
                                   12.429566  -14.706861
                   2    0.215348  -12.628146


 MOLECULE KIND INFORMATION


 All atoms are their own molecule, skipping detailed information


 TOTAL NUMBERS AND MAXIMUM NUMBERS

  Total number of            - Atomic kinds:                                   2
                             - Atoms:                                         32
                             - Shell sets:                                    32
                             - Shells:                                       256
                             - Primitive Cartesian functions:                192
                             - Cartesian basis functions:                    992
                             - Spherical basis functions:                    832

  Maximum angular momentum of- Orbital basis functions:                        3
                             - Local part of the GTH pseudopotential:          2
                             - Non-local part of the GTH pseudopotential:      3


 MODULE QUICKSTEP: ATOMIC COORDINATES IN ANGSTROM

   Atom Kind Element         X             Y             Z       Z(eff)     Mass
      1    1 Ni   28      0.876298      0.876298      7.370500  18.0000  58.6934
      2    1 Ni   28      0.876298      4.382298      7.370500  18.0000  58.6934
      3    1 Ni   28      2.629298      2.629298      7.370500  18.0000  58.6934
      4    1 Ni   28      2.629298      6.135298      7.370500  18.0000  58.6934
      5    1 Ni   28      4.382298      0.876298      7.370500  18.0000  58.6934
      6    1 Ni   28      4.382298      4.382298      7.370500  18.0000  58.6934
      7    1 Ni   28      6.135298      2.629298      7.370500  18.0000  58.6934
      8    1 Ni   28      6.135298      6.135298      7.370500  18.0000  58.6934
      9    2 Ni   28      0.876298      2.629298      9.123500  18.0000  58.6934
     10    2 Ni   28      0.876298      6.135298      9.123500  18.0000  58.6934
     11    2 Ni   28      2.629298      0.876298      9.123500  18.0000  58.6934
     12    2 Ni   28      2.629298      4.382298      9.123500  18.0000  58.6934
     13    2 Ni   28      4.382298      2.629298      9.123500  18.0000  58.6934
     14    2 Ni   28      4.382298      6.135298      9.123500  18.0000  58.6934
     15    2 Ni   28      6.135298      0.876298      9.123500  18.0000  58.6934
     16    2 Ni   28      6.135298      4.382298      9.123500  18.0000  58.6934
     17    2 Ni   28      0.876298      0.876298     10.876500  18.0000  58.6934
     18    2 Ni   28      0.876298      4.382298     10.876500  18.0000  58.6934
     19    2 Ni   28      2.629298      2.629298     10.876500  18.0000  58.6934
     20    2 Ni   28      2.629298      6.135298     10.876500  18.0000  58.6934
     21    2 Ni   28      4.382298      0.876298     10.876500  18.0000  58.6934
     22    2 Ni   28      4.382298      4.382298     10.876500  18.0000  58.6934
     23    2 Ni   28      6.135298      2.629298     10.876500  18.0000  58.6934
     24    2 Ni   28      6.135298      6.135298     10.876500  18.0000  58.6934
     25    1 Ni   28      0.876298      2.629298     12.629500  18.0000  58.6934
     26    1 Ni   28      0.876298      6.135298     12.629500  18.0000  58.6934
     27    1 Ni   28      2.629298      0.876298     12.629500  18.0000  58.6934
     28    1 Ni   28      2.629298      4.382298     12.629500  18.0000  58.6934
     29    1 Ni   28      4.382298      2.629298     12.629500  18.0000  58.6934
     30    1 Ni   28      4.382298      6.135298     12.629500  18.0000  58.6934
     31    1 Ni   28      6.135298      0.876298     12.629500  18.0000  58.6934
     32    1 Ni   28      6.135298      4.382298     12.629500  18.0000  58.6934



 SCF PARAMETERS         Density guess:                                    ATOMIC
                        --------------------------------------------------------
                        max_scf:                                             500
                        max_scf_history:                                       0
                        max_diis:                                              4
                        --------------------------------------------------------
                        eps_scf:                                        1.00E-04
                        eps_scf_history:                                0.00E+00
                        eps_diis:                                       1.00E-01
                        eps_eigval:                                     1.00E-05
                        --------------------------------------------------------
                        level_shift [a.u.]:                             0.000000
                        added MOs                                       531  556
                        --------------------------------------------------------
                        Mixing method:                            BROYDEN_MIXING
                                                charge density mixing in g-space
                        --------------------------------------------------------
                        Smear method:                                FERMI_DIRAC
                        Electronic temperature [K]:                       2000.0
                        Electronic temperature [a.u.]:                  6.33E-03
                        Accuracy threshold:                             1.00E-10
                        --------------------------------------------------------
                        No outer SCF

 PW_GRID| Information for grid number                                          1
 PW_GRID| Grid distributed over                                   128 processors
 PW_GRID| Real space group dimensions                                     8   16
 PW_GRID| the grid is blocked:                                               YES
 PW_GRID| Cutoff [a.u.]                                                    300.0
 PW_GRID| spherical cutoff:                                                   NO
 PW_GRID|   Bounds   1            -54      53                Points:         108
 PW_GRID|   Bounds   2            -54      53                Points:         108
 PW_GRID|   Bounds   3           -150     149                Points:         300
 PW_GRID| Volume element (a.u.^3)  0.1896E-02     Volume (a.u.^3)      6635.2971
 PW_GRID| Grid span                                                    FULLSPACE
 PW_GRID|   Distribution                         Average         Max         Min
 PW_GRID|   G-Vectors                            27337.5       28728       25272
 PW_GRID|   G-Rays                                 253.1         266         234
 PW_GRID|   Real Space Points                    27337.5       28728       25272

 PW_GRID| Information for grid number                                          2
 PW_GRID| Number of the reference grid                                         1
 PW_GRID| Grid distributed over                                   128 processors
 PW_GRID| Real space group dimensions                                     8   16
 PW_GRID| the grid is blocked:                                                NO
 PW_GRID| Cutoff [a.u.]                                                    100.0
 PW_GRID| spherical cutoff:                                                   NO
 PW_GRID|   Bounds   1            -30      29                Points:          60
 PW_GRID|   Bounds   2            -30      29                Points:          60
 PW_GRID|   Bounds   3            -90      89                Points:         180
 PW_GRID| Volume element (a.u.^3)  0.1024E-01     Volume (a.u.^3)      6635.2971
 PW_GRID| Grid span                                                    FULLSPACE
 PW_GRID|   Distribution                         Average         Max         Min
 PW_GRID|   G-Vectors                             5062.5       15960           0
 PW_GRID|   G-Rays                                  84.4         266           0
 PW_GRID|   Real Space Points                     5062.5        5760        3780

 PW_GRID| Information for grid number                                          3
 PW_GRID| Number of the reference grid                                         1
 PW_GRID| Grid distributed over                                   128 processors
 PW_GRID| Real space group dimensions                                     8   16
 PW_GRID| the grid is blocked:                                                NO
 PW_GRID| Cutoff [a.u.]                                                     33.3
 PW_GRID| spherical cutoff:                                                   NO
 PW_GRID|   Bounds   1            -18      17                Points:          36
 PW_GRID|   Bounds   2            -18      17                Points:          36
 PW_GRID|   Bounds   3            -50      49                Points:         100
 PW_GRID| Volume element (a.u.^3)  0.5120E-01     Volume (a.u.^3)      6635.2971
 PW_GRID| Grid span                                                    FULLSPACE
 PW_GRID|   Distribution                         Average         Max         Min
 PW_GRID|   G-Vectors                             1012.5        9576           0
 PW_GRID|   G-Rays                                  28.1         266           0
 PW_GRID|   Real Space Points                     1012.5        1500         800

 PW_GRID| Information for grid number                                          4
 PW_GRID| Number of the reference grid                                         1
 PW_GRID| Grid distributed over                                   128 processors
 PW_GRID| Real space group dimensions                                     8   16
 PW_GRID| the grid is blocked:                                                NO
 PW_GRID| Cutoff [a.u.]                                                     11.1
 PW_GRID| spherical cutoff:                                                   NO
 PW_GRID|   Bounds   1            -10       9                Points:          20
 PW_GRID|   Bounds   2            -10       9                Points:          20
 PW_GRID|   Bounds   3            -30      29                Points:          60
 PW_GRID| Volume element (a.u.^3)  0.2765         Volume (a.u.^3)      6635.2971
 PW_GRID| Grid span                                                    FULLSPACE
 PW_GRID|   Distribution                         Average         Max         Min
 PW_GRID|   G-Vectors                              187.5        3800           0
 PW_GRID|   G-Rays                                   9.4         190           0
 PW_GRID|   Real Space Points                      187.5         360         120

 PW_GRID| Information for grid number                                          5
 PW_GRID| Number of the reference grid                                         1
 PW_GRID| Grid distributed over                                   128 processors
 PW_GRID| Real space group dimensions                                     8   16
 PW_GRID| the grid is blocked:                                                NO
 PW_GRID| Cutoff [a.u.]                                                      3.7
 PW_GRID| spherical cutoff:                                                   NO
 PW_GRID|   Bounds   1             -6       5                Points:          12
 PW_GRID|   Bounds   2             -6       5                Points:          12
 PW_GRID|   Bounds   3            -18      17                Points:          36
 PW_GRID| Volume element (a.u.^3)   1.280         Volume (a.u.^3)      6635.2971
 PW_GRID| Grid span                                                    FULLSPACE
 PW_GRID|   Distribution                         Average         Max         Min
 PW_GRID|   G-Vectors                               40.5        1296           0
 PW_GRID|   G-Rays                                   3.4         108           0
 PW_GRID|   Real Space Points                       40.5          72           0

 POISSON| Solver                                                        PERIODIC
 POISSON| Periodicity                                                        XYZ

 RS_GRID| Information for grid number                                          1
 RS_GRID|   Bounds   1            -54      53                Points:         108
 RS_GRID|   Bounds   2            -54      53                Points:         108
 RS_GRID|   Bounds   3           -150     149                Points:         300
 RS_GRID| Real space distribution over                                  8 groups
 RS_GRID| Real space distribution along direction                              2
 RS_GRID| Border size                                                         28
 RS_GRID| Real space distribution over                                 16 groups
 RS_GRID| Real space distribution along direction                              3
 RS_GRID| Border size                                                         28
 RS_GRID|   Distribution                         Average         Max         Min
 RS_GRID|   Planes                                  69.5          70          69
 RS_GRID|   Distribution                         Average         Max         Min
 RS_GRID|   Planes                                  74.8          75          74

 RS_GRID| Information for grid number                                          2
 RS_GRID|   Bounds   1            -30      29                Points:          60
 RS_GRID|   Bounds   2            -30      29                Points:          60
 RS_GRID|   Bounds   3            -90      89                Points:         180
 RS_GRID| Real space fully replicated
 RS_GRID| Group size                                                           1

 RS_GRID| Information for grid number                                          3
 RS_GRID|   Bounds   1            -18      17                Points:          36
 RS_GRID|   Bounds   2            -18      17                Points:          36
 RS_GRID|   Bounds   3            -50      49                Points:         100
 RS_GRID| Real space fully replicated
 RS_GRID| Group size                                                           1

 RS_GRID| Information for grid number                                          4
 RS_GRID|   Bounds   1            -10       9                Points:          20
 RS_GRID|   Bounds   2            -10       9                Points:          20
 RS_GRID|   Bounds   3            -30      29                Points:          60
 RS_GRID| Real space fully replicated
 RS_GRID| Group size                                                           1

 RS_GRID| Information for grid number                                          5
 RS_GRID|   Bounds   1             -6       5                Points:          12
 RS_GRID|   Bounds   2             -6       5                Points:          12
 RS_GRID|   Bounds   3            -18      17                Points:          36
 RS_GRID| Real space fully replicated
 RS_GRID| Group size                                                           1

 Spin 1

 Number of electrons:                                                        300.560
 Number of occupied orbitals:                                                301
 Number of molecular orbitals:                                               832

 Spin 2

 Number of electrons:                                                        275.440
 Number of occupied orbitals:                                                276
 Number of molecular orbitals:                                               832

 Number of orbital functions:                                                832
 Number of independent orbital functions:                                    832

 Extrapolation method: initial_guess

 Atomic guess: The first density matrix is obtained in terms of atomic orbitals
               and electronic configurations assigned to each atomic kind

 Guess for atomic kind: Ni_i

 Electronic structure
    Total number of core electrons                                         10.00
    Total number of valence electrons                                      18.00
    Total number of electrons                                              28.00
    Multiplicity                                                         doublet
    Alpha Electrons
    S   [  1.00  1.00] 1.00  1.00
    P   [  3.00] 3.00
    D      4.40
    Beta Electrons
    S   [  1.00  1.00] 1.00  1.00
    P   [  3.00] 3.00
    D      3.60


 *******************************************************************************
                  Iteration          Convergence                     Energy [au]
 *******************************************************************************
                          1         1.51750                    -167.068932204718
                          2         15.5935                    -156.656530566819
                          3         2.37322                    -168.320625176021
                          4        0.215236                    -168.611142488999
                          5        0.864690E-01                -168.614185977773
                          6        0.204270E-01                -168.614864366588
                          7        0.117629E-02                -168.614962284536
                          8        0.143499E-02                -168.614962241165
                          9        0.165550E-03                -168.614962454733
                         10        0.801651E-03                -168.614962414936
                         11        0.526340E-03                -168.614962440154
                         12        0.114214E-03                -168.614962458210
                         13        0.974554E-04                -168.614962459061
                         14        0.103837E-03                -168.614962459937
                         15        0.922182E-04                -168.614962460311
                         16        0.489415E-04                -168.614962460739
                         17        0.376531E-04                -168.614962461148
                         18        0.319337E-04                -168.614962461185
                         19        0.537275E-04                -168.614962461068
                         20        0.409549E-04                -168.614962461145
                         21        0.226152E-04                -168.614962461237
                         22        0.174462E-04                -168.614962461257
                         23        0.165586E-04                -168.614962461260
                         24        0.160650E-04                -168.614962461262
                         25        0.113583E-04                -168.614962461280
                         26        0.503754E-05                -168.614962461287
                         27        0.239088E-05                -168.614962461289
                         28        0.206656E-05                -168.614962461289
                         29        0.678810E-06                -168.614962461289

 Energy components [Hartree]           Total Energy ::         -168.614962461289
                                        Band Energy ::          -26.570438398031
                                     Kinetic Energy ::           97.308645535822
                                   Potential Energy ::         -265.923607997111
                                      Virial (-V/T) ::            2.732785011371
                                        Core Energy ::         -299.569105195415
                                          XC Energy ::          -16.228812263913
                                     Coulomb Energy ::          147.182954998038
                       Total Pseudopotential Energy ::         -396.964091881334
                       Local Pseudopotential Energy ::         -362.650332264705
                    Nonlocal Pseudopotential Energy ::          -34.313759616629
                                        Confinement ::            0.863411500974

 Orbital energies  State     Spin  L     Occupation   Energy[a.u.]    Energy[eV]

                       1    alpha  0          1.000      -4.174802   -113.602130
                       2    alpha  0          1.000      -0.181779     -4.946449
                       1     beta  0          1.000      -4.138200   -112.606137
                       2     beta  0          1.000      -0.175997     -4.789129

                       1    alpha  1          3.000      -2.580817    -70.227599
                       1     beta  1          3.000      -2.545205    -69.258560

                       1    alpha  2          4.400      -0.328813     -8.947444
                       1     beta  2          3.600      -0.298561     -8.124256


 Total Electron Density at R=0:                                         0.030417

 Guess for atomic kind: Ni_b

 Electronic structure
    Total number of core electrons                                         10.00
    Total number of valence electrons                                      18.00
    Total number of electrons                                              28.00
    Multiplicity                                                         doublet
    Alpha Electrons
    S   [  1.00  1.00] 1.00  1.00
    P   [  3.00] 3.00
    D      4.38
    Beta Electrons
    S   [  1.00  1.00] 1.00  1.00
    P   [  3.00] 3.00
    D      3.62


 *******************************************************************************
                  Iteration          Convergence                     Energy [au]
 *******************************************************************************
                          1         1.51743                    -167.068458813862
                          2         15.5326                    -156.652174512656
                          3         2.36158                    -168.320227060345
                          4        0.212703                    -168.610753863869
                          5        0.849699E-01                -168.613773682004
                          6        0.194886E-01                -168.614426658677
                          7        0.162947E-02                -168.614516873527
                          8        0.192367E-02                -168.614516785781
                          9        0.108156E-03                -168.614517192818
                         10        0.111469E-02                -168.614517109740
                         11        0.606702E-03                -168.614517170324
                         12        0.122414E-03                -168.614517192005
                         13        0.103285E-03                -168.614517193027
                         14        0.106151E-03                -168.614517194467
                         15        0.101755E-03                -168.614517194603
                         16        0.645393E-04                -168.614517195043
                         17        0.611800E-04                -168.614517195542
                         18        0.386307E-04                -168.614517195675
                         19        0.702604E-04                -168.614517195449
                         20        0.576951E-04                -168.614517195552
                         21        0.484871E-04                -168.614517195616
                         22        0.157508E-04                -168.614517195774
                         23        0.147872E-04                -168.614517195793
                         24        0.188284E-04                -168.614517195783
                         25        0.703927E-05                -168.614517195814
                         26        0.752880E-05                -168.614517195816
                         27        0.463564E-05                -168.614517195819
                         28        0.198510E-05                -168.614517195820
                         29        0.662950E-06                -168.614517195820

 Energy components [Hartree]           Total Energy ::         -168.614517195820
                                        Band Energy ::          -26.570229761235
                                     Kinetic Energy ::           97.308045836549
                                   Potential Energy ::         -265.922563032369
                                      Virial (-V/T) ::            2.732791114509
                                        Core Energy ::         -299.568755448805
                                          XC Energy ::          -16.228303000938
                                     Coulomb Energy ::          147.182541253923
                       Total Pseudopotential Energy ::         -396.963142366475
                       Local Pseudopotential Energy ::         -362.649697438268
                    Nonlocal Pseudopotential Energy ::          -34.313444928207
                                        Confinement ::            0.863410811209

 Orbital energies  State     Spin  L     Occupation   Energy[a.u.]    Energy[eV]

                       1    alpha  0          1.000      -4.174164   -113.584766
                       2    alpha  0          1.000      -0.181675     -4.943615
                       1     beta  0          1.000      -4.138934   -112.626122
                       2     beta  0          1.000      -0.176110     -4.792199

                       1    alpha  1          3.000      -2.580196    -70.210703
                       1     beta  1          3.000      -2.545920    -69.278003

                       1    alpha  2          4.385      -0.328282     -8.933020
                       1     beta  2          3.615      -0.299165     -8.140695


 Total Electron Density at R=0:                                         0.030419

 Spin 1
 Re-scaling the density matrix to get the right number of electrons for spin 1
                  # Electrons              Trace(P)               Scaling factor
                        300.560             300.560                        1.000

 Spin 2
 Re-scaling the density matrix to get the right number of electrons for spin 2
                  # Electrons              Trace(P)               Scaling factor
                        275.440             275.440                        1.000


 SCF WAVEFUNCTION OPTIMIZATION

  Step     Update method      Time    Convergence         Total energy    Change
  ------------------------------------------------------------------------------
     1 NoMix/Diag. 0.80E-01    1.5     0.87232571     -5426.5190054272 -5.43E+03
     2 Broy./Diag. 0.80E-01    1.5     0.01532709     -5317.7319117727  1.09E+02
     3 Broy./Diag. 0.80E-01    1.5     0.05333288     -5353.8568980078 -3.61E+01
     4 Broy./Diag. 0.80E-01    1.5     0.00300681     -5417.4813495920 -6.36E+01
     5 Broy./Diag. 0.80E-01    1.5     0.02676283     -5413.6121849930  3.87E+00
     6 Broy./Diag. 0.80E-01    1.5     0.00170135     -5418.3617102163 -4.75E+00
     7 Broy./Diag. 0.80E-01    1.5     0.01310815     -5416.6914202053  1.67E+00
     8 Broy./Diag. 0.80E-01    1.5     0.00347171     -5418.8623111375 -2.17E+00
     9 Broy./Diag. 0.80E-01    1.5     0.00326217     -5417.2626378227  1.60E+00
[...]
   118 Broy./Diag. 0.80E-01    1.5     0.00513716     -5417.7197119871  1.91E-02
   119 Broy./Diag. 0.80E-01    1.5     0.00124641     -5417.6892778789  3.04E-02
   120 Broy./Diag. 0.80E-01    1.5     0.00193322     -5417.6896413277 -3.63E-04
   121 Broy./Diag. 0.80E-01    1.5     0.00474056     -5417.6892303866  4.11E-04
   122 Broy./Diag. 0.80E-01    1.5     0.00241600     -5417.7061772504 -1.69E-02
   123 Broy./Diag. 0.80E-01    1.5     0.00386792     -5417.7057198684  4.57E-04
   124 Broy./Diag. 0.80E-01    1.5     0.00071642     -5417.6813410286  2.44E-02
   125 Broy./Diag. 0.80E-01    1.5     0.00087172     -5417.6800450148  1.30E-03
   126 Broy./Diag. 0.80E-01    1.5     0.00065860     -5417.6729903424  7.05E-03
   127 Broy./Diag. 0.80E-01    1.5     0.00402530     -5417.6763977899 -3.41E-03
   128 Broy./Diag. 0.80E-01    1.5     0.00147918     -5417.6973681265 -2.10E-02
   129 Broy./Diag. 0.80E-01    1.5     0.00257526     -5417.7263556890 -2.90E-02
   130 Broy./Diag. 0.80E-01    1.5     0.00425046     -5417.7155182708  1.08E-02
   131 Broy./Diag. 0.80E-01    1.5     0.00218225     -5417.7373926879 -2.19E-02
   132 Broy./Diag. 0.80E-01    1.5     0.00054834     -5417.6932358088  4.42E-02
   133 Broy./Diag. 0.80E-01    1.5     0.00275383     -5417.7069110027 -1.37E-02
   134 Broy./Diag. 0.80E-01    1.5     0.00175351     -5417.7628161890 -5.59E-02
   135 Broy./Diag. 0.80E-01    1.5     0.00129290     -5417.8054044190 -4.26E-02
   136 Broy./Diag. 0.80E-01    1.5     0.00141846     -5417.8053578925  4.65E-05
   137 Broy./Diag. 0.80E-01    1.5     0.00044818     -5417.7704609942  3.49E-02
   138 Broy./Diag. 0.80E-01    1.5     0.00036169     -5417.7500347734  2.04E-02
   139 Broy./Diag. 0.80E-01    1.5     0.00411688     -5417.7366872572  1.33E-02
   140 Broy./Diag. 0.80E-01    1.5     0.00132841     -5417.7719117856 -3.52E-02
   141 Broy./Diag. 0.80E-01    1.5     0.00036531     -5417.7807205925 -8.81E-03
   142 Broy./Diag. 0.80E-01    1.5     0.00042301     -5417.7746483510  6.07E-03
   143 Broy./Diag. 0.80E-01    1.5     0.00048716     -5417.7853132104 -1.07E-02
   144 Broy./Diag. 0.80E-01    1.5     0.00187668     -5417.7888913521 -3.58E-03
   145 Broy./Diag. 0.80E-01    1.5     0.00041369     -5417.8025397838 -1.36E-02
   146 Broy./Diag. 0.80E-01    1.5     0.00040021     -5417.8002624657  2.28E-03
   147 Broy./Diag. 0.80E-01    1.5     0.00524633     -5417.7989366511  1.33E-03
   148 Broy./Diag. 0.80E-01    1.5     0.00088419     -5417.8346382235 -3.57E-02
   149 Broy./Diag. 0.80E-01    1.5     0.00388019     -5417.8314030239  3.24E-03
   150 Broy./Diag. 0.80E-01    1.5     0.00320557     -5417.8222173046  9.19E-03
   151 Broy./Diag. 0.80E-01    1.5     0.00149606     -5417.8241842668 -1.97E-03
   152 Broy./Diag. 0.80E-01    1.5     0.00258470     -5417.8393360279 -1.52E-02
   153 Broy./Diag. 0.80E-01    1.5     0.00077066     -5417.8230573540  1.63E-02
   154 Broy./Diag. 0.80E-01    1.5     0.00161009     -5417.8247107956 -1.65E-03
   155 Broy./Diag. 0.80E-01    1.5     0.00299935     -5417.8287093240 -4.00E-03
   156 Broy./Diag. 0.80E-01    1.5     0.00174947     -5417.8260070403  2.70E-03
   157 Broy./Diag. 0.80E-01    1.5     0.00069745     -5417.8421932071 -1.62E-02
   158 Broy./Diag. 0.80E-01    1.5     0.00129858     -5417.8122001070  3.00E-02
   159 Broy./Diag. 0.80E-01    1.5     0.00038102     -5417.8108778264  1.32E-03
   160 Broy./Diag. 0.80E-01    1.5     0.00344805     -5417.8023118050  8.57E-03
   161 Broy./Diag. 0.80E-01    1.5     0.00096739     -5417.7925452373  9.77E-03
   162 Broy./Diag. 0.80E-01    1.5     0.00075896     -5417.7866441937  5.90E-03
   163 Broy./Diag. 0.80E-01    1.5     0.00048698     -5417.7900788132 -3.43E-03
   164 Broy./Diag. 0.80E-01    1.5     0.00185441     -5417.7790789400  1.10E-02
   165 Broy./Diag. 0.80E-01    1.5     0.00054689     -5417.7902994467 -1.12E-02
   166 Broy./Diag. 0.80E-01    1.5     0.00150494     -5417.7924058132 -2.11E-03
   167 Broy./Diag. 0.80E-01    1.5     0.00026653     -5417.7882736123  4.13E-03
   168 Broy./Diag. 0.80E-01    1.5     0.00041052     -5417.7857581018  2.52E-03
   169 Broy./Diag. 0.80E-01    1.5     0.00053607     -5417.7848091991  9.49E-04
   170 Broy./Diag. 0.80E-01    1.5     0.00098737     -5417.7898153672 -5.01E-03
   171 Broy./Diag. 0.80E-01    1.5     0.00029959     -5417.7845963189  5.22E-03
   172 Broy./Diag. 0.80E-01    1.5     0.00011033     -5417.7822975075  2.30E-03
   173 Broy./Diag. 0.80E-01    1.5     0.00021342     -5417.7818757826  4.22E-04
   174 Broy./Diag. 0.80E-01    1.5     0.00050066     -5417.7822633059 -3.88E-04
   175 Broy./Diag. 0.80E-01    1.5     0.00352365     -5417.7799708475  2.29E-03
   176 Broy./Diag. 0.80E-01    1.5     0.00327789     -5417.8099162958 -2.99E-02
   177 Broy./Diag. 0.80E-01    1.5     0.00221203     -5417.7919899631  1.79E-02
   178 Broy./Diag. 0.80E-01    1.5     0.00077825     -5417.8102580054 -1.83E-02
   179 Broy./Diag. 0.80E-01    1.5     0.00365043     -5417.8115067209 -1.25E-03
   180 Broy./Diag. 0.80E-01    1.5     0.00093475     -5417.8343774134 -2.29E-02
   181 Broy./Diag. 0.80E-01    1.5     0.00169053     -5417.8350023477 -6.25E-04
   182 Broy./Diag. 0.80E-01    1.5     0.00565244     -5417.8202539535  1.47E-02
   183 Broy./Diag. 0.80E-01    1.5     0.00466677     -5417.7767003116  4.36E-02
   184 Broy./Diag. 0.80E-01    1.5     0.00094474     -5417.7546055475  2.21E-02
   185 Broy./Diag. 0.80E-01    1.5     0.00032749     -5417.7475283867  7.08E-03
   186 Broy./Diag. 0.80E-01    1.5     0.00338476     -5417.7487284479 -1.20E-03
   187 Broy./Diag. 0.80E-01    1.5     0.00157715     -5417.7556019439 -6.87E-03
   188 Broy./Diag. 0.80E-01    1.5     0.00021771     -5417.7537385929  1.86E-03
   189 Broy./Diag. 0.80E-01    1.5     0.00125948     -5417.7551278785 -1.39E-03
   190 Broy./Diag. 0.80E-01    1.5     0.00167456     -5417.7543521510  7.76E-04
   191 Broy./Diag. 0.80E-01    1.5     0.00169923     -5417.7576472599 -3.30E-03
   192 Broy./Diag. 0.80E-01    1.5     0.00089166     -5417.7641951865 -6.55E-03
   193 Broy./Diag. 0.80E-01    1.5     0.00066588     -5417.7736520083 -9.46E-03
   194 Broy./Diag. 0.80E-01    1.5     0.00171647     -5417.7804813886 -6.83E-03
   195 Broy./Diag. 0.80E-01    1.5     0.00099818     -5417.7839242231 -3.44E-03
   196 Broy./Diag. 0.80E-01    1.5     0.00081198     -5417.7831059546  8.18E-04
   197 Broy./Diag. 0.80E-01    1.5     0.00228124     -5417.7726771428  1.04E-02
   198 Broy./Diag. 0.80E-01    1.5     0.00173372     -5417.7666721131  6.01E-03
   199 Broy./Diag. 0.80E-01    1.5     0.00049611     -5417.7588874260  7.78E-03
   200 Broy./Diag. 0.80E-01    1.5     0.00022228     -5417.7599344166 -1.05E-03
   201 Broy./Diag. 0.80E-01    1.5     0.00076717     -5417.7635883332 -3.65E-03
   202 Broy./Diag. 0.80E-01    1.5     0.00051299     -5417.7544923696  9.10E-03
   203 Broy./Diag. 0.80E-01    1.5     0.00363662     -5417.7687282736 -1.42E-02
   204 Broy./Diag. 0.80E-01    1.5     0.00230913     -5417.7836495116 -1.49E-02
   205 Broy./Diag. 0.80E-01    1.5     0.00240204     -5417.7771635579  6.49E-03
   206 Broy./Diag. 0.80E-01    1.5     0.00196968     -5417.7699060859  7.26E-03
   207 Broy./Diag. 0.80E-01    1.5     0.00122090     -5417.7584249361  1.15E-02
   208 Broy./Diag. 0.80E-01    1.5     0.00222808     -5417.7594372301 -1.01E-03
   209 Broy./Diag. 0.80E-01    1.5     0.00060016     -5417.7465469318  1.29E-02
   210 Broy./Diag. 0.80E-01    1.5     0.00039982     -5417.7480727893 -1.53E-03
   211 Broy./Diag. 0.80E-01    1.5     0.00127055     -5417.7496623510 -1.59E-03
   212 Broy./Diag. 0.80E-01    1.5     0.00290619     -5417.7572398282 -7.58E-03
   213 Broy./Diag. 0.80E-01    1.5     0.00533010     -5417.7691951136 -1.20E-02
   214 Broy./Diag. 0.80E-01    1.5     0.00106798     -5417.7472929430  2.19E-02
   215 Broy./Diag. 0.80E-01    1.5     0.00483382     -5417.7509178426 -3.62E-03
   216 Broy./Diag. 0.80E-01    1.6     0.00565955     -5417.7676373203 -1.67E-02
   217 Broy./Diag. 0.80E-01    1.5     0.00036522     -5417.7542166992  1.34E-02
   218 Broy./Diag. 0.80E-01    1.5     0.00060404     -5417.7518086785  2.41E-03
   219 Broy./Diag. 0.80E-01    1.5     0.00032880     -5417.7555521256 -3.74E-03
   220 Broy./Diag. 0.80E-01    1.5     0.00031092     -5417.7513249946  4.23E-03
   221 Broy./Diag. 0.80E-01    1.5     0.00118230     -5417.7550355820 -3.71E-03
   222 Broy./Diag. 0.80E-01    1.5     0.00136193     -5417.7562878995 -1.25E-03
   223 Broy./Diag. 0.80E-01    1.5     0.00042221     -5417.7503953548  5.89E-03
   224 Broy./Diag. 0.80E-01    1.5     0.00246645     -5417.7498490409  5.46E-04
   225 Broy./Diag. 0.80E-01    1.5     0.00300846     -5417.7645381927 -1.47E-02
   226 Broy./Diag. 0.80E-01    1.5     0.00411952     -5417.7735995561 -9.06E-03
   227 Broy./Diag. 0.80E-01    1.5     0.00312339     -5417.7551042150  1.85E-02
   228 Broy./Diag. 0.80E-01    1.5     0.00769638     -5417.7844793751 -2.94E-02
   229 Broy./Diag. 0.80E-01    1.5     0.00081593     -5417.8166155245 -3.21E-02
   230 Broy./Diag. 0.80E-01    1.5     0.00436169     -5417.8095707982  7.04E-03
   231 Broy./Diag. 0.80E-01    1.5     0.00429856     -5417.8226259266 -1.31E-02
   232 Broy./Diag. 0.80E-01    1.5     0.00752549     -5417.8613625299 -3.87E-02
   233 Broy./Diag. 0.80E-01    1.5     0.00292821     -5417.8894828432 -2.81E-02
   234 Broy./Diag. 0.80E-01    1.5     0.00194924     -5417.8647673213  2.47E-02
   235 Broy./Diag. 0.80E-01    1.5     0.00332302     -5417.8649521603 -1.85E-04
   236 Broy./Diag. 0.80E-01    1.5     0.00124940     -5417.8525645443  1.24E-02
   237 Broy./Diag. 0.80E-01    1.5     0.00146221     -5417.8499821448  2.58E-03
   238 Broy./Diag. 0.80E-01    1.5     0.00162071     -5417.8625541495 -1.26E-02
   239 Broy./Diag. 0.80E-01    1.5     0.00100689     -5417.8730338314 -1.05E-02
   240 Broy./Diag. 0.80E-01    1.5     0.00210476     -5417.8592020207  1.38E-02
   241 Broy./Diag. 0.80E-01    1.5     0.00062271     -5417.8382598013  2.09E-02
   242 Broy./Diag. 0.80E-01    1.5     0.00087033     -5417.8310557731  7.20E-03
   243 Broy./Diag. 0.80E-01    1.5     0.00077153     -5417.8312246990 -1.69E-04
   244 Broy./Diag. 0.80E-01    1.5     0.00168584     -5417.8251885866  6.04E-03
   245 Broy./Diag. 0.80E-01    1.5     0.00026162     -5417.8106463276  1.45E-02
   246 Broy./Diag. 0.80E-01    1.5     0.00229737     -5417.8096181305  1.03E-03
   247 Broy./Diag. 0.80E-01    1.5     0.00116081     -5417.8061662168  3.45E-03
   248 Broy./Diag. 0.80E-01    1.5     0.00182840     -5417.8083615311 -2.20E-03
   249 Broy./Diag. 0.80E-01    1.5     0.00061080     -5417.8044646441  3.90E-03
   250 Broy./Diag. 0.80E-01    1.5     0.00012216     -5417.8074882718 -3.02E-03
   251 Broy./Diag. 0.80E-01    1.5     0.00087509     -5417.8050174677  2.47E-03
   252 Broy./Diag. 0.80E-01    1.5     0.00176724     -5417.7929096788  1.21E-02
   253 Broy./Diag. 0.80E-01    1.5     0.00054639     -5417.7812451627  1.17E-02
   254 Broy./Diag. 0.80E-01    1.5     0.00103113     -5417.7839704789 -2.73E-03
   255 Broy./Diag. 0.80E-01    1.5     0.00134812     -5417.7716675161  1.23E-02
   256 Broy./Diag. 0.80E-01    1.5     0.00217339     -5417.7785057813 -6.84E-03
   257 Broy./Diag. 0.80E-01    1.5     0.00043791     -5417.7866379091 -8.13E-03
   258 Broy./Diag. 0.80E-01    1.5     0.00022343     -5417.7878536310 -1.22E-03
   259 Broy./Diag. 0.80E-01    1.5     0.00135632     -5417.7942169685 -6.36E-03
   260 Broy./Diag. 0.80E-01    1.5     0.00064094     -5417.8023045521 -8.09E-03
   261 Broy./Diag. 0.80E-01    1.5     0.00460046     -5417.7947339781  7.57E-03
   262 Broy./Diag. 0.80E-01    1.5     0.00859905     -5417.7868278385  7.91E-03
   263 Broy./Diag. 0.80E-01    1.5     0.00229467     -5417.8314502034 -4.46E-02
   264 Broy./Diag. 0.80E-01    1.5     0.00127167     -5417.8406339077 -9.18E-03
   265 Broy./Diag. 0.80E-01    1.5     0.00148028     -5417.8016387280  3.90E-02
   266 Broy./Diag. 0.80E-01    1.5     0.00112476     -5417.8350572851 -3.34E-02
   267 Broy./Diag. 0.80E-01    1.5     0.00304817     -5417.8188110223  1.62E-02
   268 Broy./Diag. 0.80E-01    1.5     0.00035893     -5417.7853772703  3.34E-02
   269 Broy./Diag. 0.80E-01    1.5     0.00384435     -5417.7909835432 -5.61E-03
   270 Broy./Diag. 0.80E-01    1.5     0.00174563     -5417.8016052479 -1.06E-02
   271 Broy./Diag. 0.80E-01    1.5     0.00159739     -5417.8021843498 -5.79E-04
   272 Broy./Diag. 0.80E-01    1.5     0.00251350     -5417.7986906963  3.49E-03
   273 Broy./Diag. 0.80E-01    1.5     0.00368148     -5417.7837856259  1.49E-02
   274 Broy./Diag. 0.80E-01    1.5     0.00106220     -5417.7753228899  8.46E-03
   275 Broy./Diag. 0.80E-01    1.5     0.00399752     -5417.7817834316 -6.46E-03
   276 Broy./Diag. 0.80E-01    1.5     0.00053331     -5417.7943490780 -1.26E-02
   277 Broy./Diag. 0.80E-01    1.5     0.00029088     -5417.7950516008 -7.03E-04
   278 Broy./Diag. 0.80E-01    1.5     0.00321458     -5417.7955208754 -4.69E-04
   279 Broy./Diag. 0.80E-01    1.5     0.00296398     -5417.7815353454  1.40E-02
   280 Broy./Diag. 0.80E-01    1.5     0.00606021     -5417.7962259716 -1.47E-02
   281 Broy./Diag. 0.80E-01    1.5     0.01264287     -5417.7685609193  2.77E-02
   282 Broy./Diag. 0.80E-01    1.5     0.01688984     -5417.7590300967  9.53E-03
   283 Broy./Diag. 0.80E-01    1.5     0.00806821     -5417.8136326056 -5.46E-02
   284 Broy./Diag. 0.80E-01    1.5     0.01971035     -5417.8048414366  8.79E-03
   285 Broy./Diag. 0.80E-01    1.5     0.01113509     -5417.7963138578  8.53E-03
   286 Broy./Diag. 0.80E-01    1.5     0.00384237     -5417.8260620691 -2.97E-02
   287 Broy./Diag. 0.80E-01    1.5     0.00222067     -5417.7981332717  2.79E-02
   288 Broy./Diag. 0.80E-01    1.5     0.00116894     -5417.7869167608  1.12E-02
   289 Broy./Diag. 0.80E-01    1.5     0.00559892     -5417.7809961419  5.92E-03
   290 Broy./Diag. 0.80E-01    1.5     0.00650711     -5417.7099765762  7.10E-02
   291 Broy./Diag. 0.80E-01    1.5     0.00192309     -5417.7687041758 -5.87E-02
   292 Broy./Diag. 0.80E-01    1.5     0.00651161     -5417.7770943660 -8.39E-03
   293 Broy./Diag. 0.80E-01    1.5     0.00381220     -5417.7734197400  3.67E-03
   294 Broy./Diag. 0.80E-01    1.5     0.00157670     -5417.7040881624  6.93E-02
   295 Broy./Diag. 0.80E-01    1.5     0.00340576     -5417.7360241248 -3.19E-02
   296 Broy./Diag. 0.80E-01    1.5     0.00570424     -5417.7823011606 -4.63E-02
   297 Broy./Diag. 0.80E-01    1.5     0.00713074     -5417.6955096143  8.68E-02
   298 Broy./Diag. 0.80E-01    1.5     0.00856672     -5417.6957159062 -2.06E-04
   299 Broy./Diag. 0.80E-01    1.5     0.00097271     -5417.6684090045  2.73E-02
   300 Broy./Diag. 0.80E-01    1.5     0.00426502     -5417.7107289339 -4.23E-02
   301 Broy./Diag. 0.80E-01    1.5     0.00437334     -5417.7609925384 -5.03E-02
   302 Broy./Diag. 0.80E-01    1.5     0.00550445     -5417.7639852391 -2.99E-03
   303 Broy./Diag. 0.80E-01    1.5     0.00827139     -5417.7447758003  1.92E-02
   304 Broy./Diag. 0.80E-01    1.5     0.00109869     -5417.7480650037 -3.29E-03
   305 Broy./Diag. 0.80E-01    1.5     0.00153940     -5417.7467567733  1.31E-03
   306 Broy./Diag. 0.80E-01    1.5     0.00224460     -5417.7339231201  1.28E-02
   307 Broy./Diag. 0.80E-01    1.5     0.00234064     -5417.7147943632  1.91E-02
   308 Broy./Diag. 0.80E-01    1.5     0.00242594     -5417.7073901502  7.40E-03
   309 Broy./Diag. 0.80E-01    1.5     0.00323382     -5417.7029304910  4.46E-03
   310 Broy./Diag. 0.80E-01    1.5     0.00767243     -5417.7271742059 -2.42E-02
   311 Broy./Diag. 0.80E-01    1.5     0.00359414     -5417.6976568357  2.95E-02
   312 Broy./Diag. 0.80E-01    1.5     0.00265339     -5417.7149417403 -1.73E-02
   313 Broy./Diag. 0.80E-01    1.5     0.00914927     -5417.7131777589  1.76E-03
   314 Broy./Diag. 0.80E-01    1.5     0.00284169     -5417.7280336725 -1.49E-02
   315 Broy./Diag. 0.80E-01    1.5     0.00300236     -5417.7527487252 -2.47E-02
   316 Broy./Diag. 0.80E-01    1.5     0.00083613     -5417.7713868432 -1.86E-02
   317 Broy./Diag. 0.80E-01    1.5     0.00255231     -5417.7759494776 -4.56E-03
   318 Broy./Diag. 0.80E-01    1.5     0.00350686     -5417.7699795071  5.97E-03
   319 Broy./Diag. 0.80E-01    1.5     0.00091169     -5417.7886356072 -1.87E-02
   320 Broy./Diag. 0.80E-01    1.5     0.00576246     -5417.7955034704 -6.87E-03
   321 Broy./Diag. 0.80E-01    1.5     0.00499155     -5417.8024558970 -6.95E-03
   322 Broy./Diag. 0.80E-01    1.5     0.00259797     -5417.7936072658  8.85E-03
   323 Broy./Diag. 0.80E-01    1.5     0.00041610     -5417.7895789874  4.03E-03
   324 Broy./Diag. 0.80E-01    1.5     0.00061566     -5417.7874269849  2.15E-03
   325 Broy./Diag. 0.80E-01    1.5     0.01038928     -5417.7951496443 -7.72E-03
   326 Broy./Diag. 0.80E-01    1.5     0.00256679     -5417.7718603450  2.33E-02
   327 Broy./Diag. 0.80E-01    1.5     0.00523683     -5417.7504517607  2.14E-02
   328 Broy./Diag. 0.80E-01    1.5     0.00182851     -5417.7501316653  3.20E-04
   329 Broy./Diag. 0.80E-01    1.5     0.00235472     -5417.7636023152 -1.35E-02
   330 Broy./Diag. 0.80E-01    1.5     0.01508984     -5417.7841843674 -2.06E-02
   331 Broy./Diag. 0.80E-01    1.5     0.00564108     -5417.7622918534  2.19E-02
   332 Broy./Diag. 0.80E-01    1.5     0.02339310     -5417.8089092407 -4.66E-02
   333 Broy./Diag. 0.80E-01    1.5     0.01771299     -5417.8752771989 -6.64E-02
   334 Broy./Diag. 0.80E-01    1.5     0.00445501     -5417.7523362962  1.23E-01
   335 Broy./Diag. 0.80E-01    1.5     0.01009836     -5417.8420097134 -8.97E-02
   336 Broy./Diag. 0.80E-01    1.5     0.00331228     -5417.7747607425  6.72E-02
   337 Broy./Diag. 0.80E-01    1.5     0.00345486     -5417.7368032361  3.80E-02
   338 Broy./Diag. 0.80E-01    1.5     0.00462242     -5417.7519167287 -1.51E-02
   339 Broy./Diag. 0.80E-01    1.5     0.00425826     -5417.7142527656  3.77E-02
   340 Broy./Diag. 0.80E-01    1.5     0.01633319     -5417.7197044064 -5.45E-03
   341 Broy./Diag. 0.80E-01    1.5     0.01143837     -5417.6667907001  5.29E-02
   342 Broy./Diag. 0.80E-01    1.5     0.00246298     -5417.6007597518  6.60E-02
   343 Broy./Diag. 0.80E-01    1.5     0.00287642     -5417.5850366242  1.57E-02
   344 Broy./Diag. 0.80E-01    1.5     0.00666681     -5417.6449598543 -5.99E-02
   345 Broy./Diag. 0.80E-01    1.5     0.00827208     -5417.6772303325 -3.23E-02
   346 Broy./Diag. 0.80E-01    1.5     0.00219715     -5417.7151134058 -3.79E-02
   347 Broy./Diag. 0.80E-01    1.5     0.00240538     -5417.7738179068 -5.87E-02
   348 Broy./Diag. 0.80E-01    1.5     0.00117641     -5417.8227292753 -4.89E-02
   349 Broy./Diag. 0.80E-01    1.5     0.00418561     -5417.8208945065  1.83E-03
   350 Broy./Diag. 0.80E-01    1.5     0.01371719     -5417.8119479869  8.95E-03
   351 Broy./Diag. 0.80E-01    1.5     0.00204818     -5417.7534641853  5.85E-02
   352 Broy./Diag. 0.80E-01    1.5     0.00242494     -5417.7620925783 -8.63E-03
   353 Broy./Diag. 0.80E-01    1.5     0.00439167     -5417.7228330715  3.93E-02
   354 Broy./Diag. 0.80E-01    1.5     0.00812754     -5417.7103971504  1.24E-02
   355 Broy./Diag. 0.80E-01    1.5     0.00306439     -5417.7003371175  1.01E-02
   356 Broy./Diag. 0.80E-01    1.5     0.00434082     -5417.7410820770 -4.07E-02
   357 Broy./Diag. 0.80E-01    1.5     0.00253539     -5417.7483277602 -7.25E-03
   358 Broy./Diag. 0.80E-01    1.5     0.00045288     -5417.7366349865  1.17E-02
   359 Broy./Diag. 0.80E-01    1.5     0.00446119     -5417.7403500262 -3.72E-03
   360 Broy./Diag. 0.80E-01    1.5     0.00692750     -5417.7456550700 -5.31E-03
   361 Broy./Diag. 0.80E-01    1.5     0.00397340     -5417.7767782680 -3.11E-02
   362 Broy./Diag. 0.80E-01    1.5     0.00049627     -5417.7584809138  1.83E-02
   363 Broy./Diag. 0.80E-01    1.5     0.00726911     -5417.7570758172  1.41E-03
