 DBCSR| CPU Multiplication driver                                           XSMM (U)
 DBCSR| Multrec recursion limit                                              512 (U)
 DBCSR| Multiplication stack size                                           1000 (D)
 DBCSR| Maximum elements for images                                    UNLIMITED (U)
 DBCSR| Multiplicative factor virtual images                                   1 (U)
 DBCSR| Use multiplication densification                                       T (D)
 DBCSR| Multiplication size stacks                                             3 (U)
 DBCSR| Use memory pool for CPU allocation                                     F (U)
 DBCSR| Number of 3D layers                                               SINGLE (U)
 DBCSR| Use MPI memory allocation                                              F (U)
 DBCSR| Use RMA algorithm                                                      F (U)
 DBCSR| Use Communication thread                                               T (U)
 DBCSR| Communication thread load                                             87 (D)
 DBCSR| MPI: My process id                                                     0
 DBCSR| MPI: Number of processes                                             128
 DBCSR| OMP: Current number of threads                                         1
 DBCSR| OMP: Max number of threads                                             1
 DBCSR| Split modifier for TAS multiplication algorithm                  1.0E+00 (U)


  **** **** ******  **  PROGRAM STARTED AT               2023-02-14 15:38:21.257
 ***** ** ***  *** **   PROGRAM STARTED ON                             nid006724
 **    ****   ******    PROGRAM STARTED BY                                cahart
 ***** **    ** ** **   PROGRAM PROCESS ID                                 73496
  **** **  *******  **  PROGRAM STARTED IN /mnt/lustre/a2fs-work2/work/e05/e05/c
                                           ahart/postdoc/masters/ni/archer2/slab
                                           /optimise/alpha-beta/scf_1e-4_mos-100
                                           0_temp-2000_spin-0.7-0.5_periodic-xyz
                                           /search/1.0E-2_4.0E-02

 CP2K| version string:                 CP2K version 2023.1 (Development Version)
 CP2K| source code revision number:                                  git:964cd58
 CP2K| cp2kflags: omp libint fftw3 libxc elpa parallel scalapack xsmm plumed2 mk
 CP2K|            l
 CP2K| is freely available from                            https://www.cp2k.org/
 CP2K| Program compiled at                          Mon 13 Feb 17:05:14 GMT 2023
 CP2K| Program compiled on                                                  ln01
 CP2K| Program compiled for                                              ARCHER2
 CP2K| Data directory path    /work/e05/e05/cahart/cp2k/cp2k-2023.1/cp2k-2023.1-
 CP2K| Input file name                                                  cp2k.inp

 GLOBAL| Force Environment number                                              1
 GLOBAL| Basis set file name                                        BASIS_MOLOPT
 GLOBAL| Potential file name                                      GTH_POTENTIALS
 GLOBAL| MM Potential file name                                     MM_POTENTIAL
 GLOBAL| Coordinate file name                                      __STD_INPUT__
 GLOBAL| Method name                                                        CP2K
 GLOBAL| Project name                                                    Ni_bulk
 GLOBAL| Run type                                                         ENERGY
 GLOBAL| FFT library                                                       FFTW3
 GLOBAL| Diagonalization library                                            ELPA
 GLOBAL| DGEMM library                                                      BLAS
 GLOBAL| Minimum number of eigenvectors for ELPA usage                        16
 GLOBAL| Orthonormality check for eigenvectors                          DISABLED
 GLOBAL| Matrix multiplication library                                 ScaLAPACK
 GLOBAL| All-to-all communication in single precision                          F
 GLOBAL| FFTs using library dependent lengths                                  F
 GLOBAL| Grid backend                                                       AUTO
 GLOBAL| Global print level                                               MEDIUM
 GLOBAL| MPI I/O enabled                                                       T
 GLOBAL| Total number of message passing processes                           128
 GLOBAL| Number of threads for this process                                    1
 GLOBAL| This output is from process                                           0
 GLOBAL| Stack size for threads created by OpenMP (OMP_STACKSIZE)        default
 GLOBAL| CPU model name                          AMD EPYC 7742 64-Core Processor
 GLOBAL| CPUID                                                              1002

 MEMORY| system memory details [Kb]
 MEMORY|                        rank 0           min           max       average
 MEMORY| MemTotal            263528088     263528088     263528088     263528088
 MEMORY| MemFree             238619832     238616052     238619832     238616081
 MEMORY| Buffers                 24864         24864         24864         24864
 MEMORY| Cached                 653268        653212        653268        653212
 MEMORY| Slab                  1567860       1567848       1567860       1567848
 MEMORY| SReclaimable           103800        103800        103800        103800
 MEMORY| MemLikelyFree       239401764     239397928     239401764     239397957


 *** Fundamental physical constants (SI units) ***

 *** Literature: B. J. Mohr and B. N. Taylor,
 ***             CODATA recommended values of the fundamental physical
 ***             constants: 2006, Web Version 5.1
 ***             http://physics.nist.gov/constants

 Speed of light in vacuum [m/s]                             2.99792458000000E+08
 Magnetic constant or permeability of vacuum [N/A**2]       1.25663706143592E-06
 Electric constant or permittivity of vacuum [F/m]          8.85418781762039E-12
 Planck constant (h) [J*s]                                  6.62606896000000E-34
 Planck constant (h-bar) [J*s]                              1.05457162825177E-34
 Elementary charge [C]                                      1.60217648700000E-19
 Electron mass [kg]                                         9.10938215000000E-31
 Electron g factor [ ]                                     -2.00231930436220E+00
 Proton mass [kg]                                           1.67262163700000E-27
 Fine-structure constant                                    7.29735253760000E-03
 Rydberg constant [1/m]                                     1.09737315685270E+07
 Avogadro constant [1/mol]                                  6.02214179000000E+23
 Boltzmann constant [J/K]                                   1.38065040000000E-23
 Atomic mass unit [kg]                                      1.66053878200000E-27
 Bohr radius [m]                                            5.29177208590000E-11

 *** Conversion factors ***

 [u] -> [a.u.]                                              1.82288848426455E+03
 [Angstrom] -> [Bohr] = [a.u.]                              1.88972613288564E+00
 [a.u.] = [Bohr] -> [Angstrom]                              5.29177208590000E-01
 [a.u.] -> [s]                                              2.41888432650478E-17
 [a.u.] -> [fs]                                             2.41888432650478E-02
 [a.u.] -> [J]                                              4.35974393937059E-18
 [a.u.] -> [N]                                              8.23872205491840E-08
 [a.u.] -> [K]                                              3.15774647902944E+05
 [a.u.] -> [kJ/mol]                                         2.62549961709828E+03
 [a.u.] -> [kcal/mol]                                       6.27509468713739E+02
 [a.u.] -> [Pa]                                             2.94210107994716E+13
 [a.u.] -> [bar]                                            2.94210107994716E+08
 [a.u.] -> [atm]                                            2.90362800883016E+08
 [a.u.] -> [eV]                                             2.72113838565563E+01
 [a.u.] -> [Hz]                                             6.57968392072181E+15
 [a.u.] -> [1/cm] (wave numbers)                            2.19474631370540E+05
 [a.u./Bohr**2] -> [1/cm]                                   5.14048714338585E+03
 

 CELL_TOP| Volume [angstrom^3]:                                       983.249569
 CELL_TOP| Vector a [angstrom     7.012     0.000     0.000   |a| =     7.011596
 CELL_TOP| Vector b [angstrom     0.000     7.012     0.000   |b| =     7.011596
 CELL_TOP| Vector c [angstrom     0.000     0.000    20.000   |c| =    20.000000
 CELL_TOP| Angle (b,c), alpha [degree]:                                90.000000
 CELL_TOP| Angle (a,c), beta  [degree]:                                90.000000
 CELL_TOP| Angle (a,b), gamma [degree]:                                90.000000
 CELL_TOP| Numerically orthorhombic:                                         YES
 CELL_TOP| Periodicity                                                       XYZ

 GENERATE|  Preliminary Number of Bonds generated:                             0
 GENERATE|  Achieved consistency in connectivity generation.

 CELL| Volume [angstrom^3]:                                           983.249569
 CELL| Vector a [angstrom]:       7.012     0.000     0.000   |a| =     7.011596
 CELL| Vector b [angstrom]:       0.000     7.012     0.000   |b| =     7.011596
 CELL| Vector c [angstrom]:       0.000     0.000    20.000   |c| =    20.000000
 CELL| Angle (b,c), alpha [degree]:                                    90.000000
 CELL| Angle (a,c), beta  [degree]:                                    90.000000
 CELL| Angle (a,b), gamma [degree]:                                    90.000000
 CELL| Numerically orthorhombic:                                             YES
 CELL| Periodicity                                                           XYZ

 CELL_REF| Volume [angstrom^3]:                                       983.249569
 CELL_REF| Vector a [angstrom     7.012     0.000     0.000   |a| =     7.011596
 CELL_REF| Vector b [angstrom     0.000     7.012     0.000   |b| =     7.011596
 CELL_REF| Vector c [angstrom     0.000     0.000    20.000   |c| =    20.000000
 CELL_REF| Angle (b,c), alpha [degree]:                                90.000000
 CELL_REF| Angle (a,c), beta  [degree]:                                90.000000
 CELL_REF| Angle (a,b), gamma [degree]:                                90.000000
 CELL_REF| Numerically orthorhombic:                                         YES
 CELL_REF| Periodicity                                                       XYZ

 *** WARNING in cryssym.F:165 :: Symmetry library SPGLIB not available ***


 *******************************************************************************
                                    Kpoints
 *******************************************************************************
 BRILLOUIN| K-point scheme                                        Monkhorst-Pack
 BRILLOUIN| K-Point grid                                             4    4    1
 BRILLOUIN| Accuracy in Symmetry determination                      0.100000E-05
 BRILLOUIN| K-Point point group symmetrization                               OFF
 BRILLOUIN| Wavefunction type                                            COMPLEX
 BRILLOUIN| List of Kpoints [2 Pi/Bohr]                                        8
 BRILLOUIN| Number           Weight            X              Y              Z
 BRILLOUIN|     1           0.12500       -0.37500       -0.37500        0.00000
 BRILLOUIN|     2           0.12500       -0.37500       -0.12500        0.00000
 BRILLOUIN|     3           0.12500       -0.37500        0.12500        0.00000
 BRILLOUIN|     4           0.12500       -0.37500        0.37500        0.00000
 BRILLOUIN|     5           0.12500       -0.12500       -0.37500        0.00000
 BRILLOUIN|     6           0.12500       -0.12500       -0.12500        0.00000
 BRILLOUIN|     7           0.12500       -0.12500        0.12500        0.00000
 BRILLOUIN|     8           0.12500       -0.12500        0.37500        0.00000
 *******************************************************************************

 *******************************************************************************
 *******************************************************************************
 **                                                                           **
 **     #####                         ##              ##                      **
 **    ##   ##            ##          ##              ##                      **
 **   ##     ##                       ##            ######                    **
 **   ##     ##  ##   ##  ##   #####  ##  ##   ####   ##    #####    #####    **
 **   ##     ##  ##   ##  ##  ##      ## ##   ##      ##   ##   ##  ##   ##   **
 **   ##  ## ##  ##   ##  ##  ##      ####     ###    ##   ######   ######    **
 **    ##  ###   ##   ##  ##  ##      ## ##      ##   ##   ##       ##        **
 **     #######   #####   ##   #####  ##  ##  ####    ##    #####   ##        **
 **           ##                                                    ##        **
 **                                                                           **
 **                                                ... make the atoms dance   **
 **                                                                           **
 **            Copyright (C) by CP2K developers group (2000-2023)             **
 **                      J. Chem. Phys. 152, 194103 (2020)                    **
 **                                                                           **
 *******************************************************************************

 *** WARNING in qs_environment.F:1456 :: Number of electrons will be ***
 *** overwritten by NELEC_ALPHA and NELEC_BETA, multiplicity will be ***
 *** ignored.                                                        ***

 Number of electrons should be                                               576
 Sum of NELEC_ALPHA and NELEC_BETA is                                    576.000

 *** WARNING in qs_environment.F:1488 :: NELEC_ALPHA is not an integer, ***
 *** many features will not be supported.                               ***


 *** WARNING in qs_environment.F:1500 :: NELEC_BETA is not an integer, ***
 *** many features will not be supported.                              ***


 *** WARNING in qs_environment.F:1532 :: More ADDED_MOs requested for beta ***
 *** spin than available.                                                  ***


 *** WARNING in qs_environment.F:1548 :: More added MOs requested than     ***
 *** available. The full set of unoccupied MOs will be used. Use           ***
 *** 'ADDED_MOS -1' to always use all available MOs and to get rid of this ***
 *** warning.                                                              ***


 DFT| Spin unrestricted (spin-polarized) Kohn-Sham calculation               UKS
 DFT| Multiplicity                                                             1
 DFT| Number of spin states                                                    2
 DFT| Charge                                                                   0
 DFT| Self-interaction correction (SIC)                                       NO
 DFT| Cutoffs: density                                              1.000000E-10
 DFT|          gradient                                             1.000000E-10
 DFT|          tau                                                  1.000000E-10
 DFT|          cutoff_smoothing_range                               0.000000E+00
 DFT| XC density smoothing                                                  NONE
 DFT| XC derivatives                                                          PW

 FUNCTIONAL| PBE:
 FUNCTIONAL| J.P.Perdew, K.Burke, M.Ernzerhof, Phys. Rev. Letter, vol. 77, n 18,
 FUNCTIONAL|  pp. 3865-3868, (1996){spin polarized}                             

 vdW POTENTIAL|                                                   Pair Potential
 vdW POTENTIAL|          DFT-D3 (Version 3.1)
 vdW POTENTIAL|          Potential Form: S. Grimme et al, JCP 132: 154104 (2010)
 vdW POTENTIAL|          Zero Damping
 vdW POTENTIAL|          Cutoff Radius [Bohr]:                             20.00
 vdW POTENTIAL|          s6 Scaling Factor:                               1.0000
 vdW POTENTIAL|          sr6 Scaling Factor:                              1.2170
 vdW POTENTIAL|          s8 Scaling Factor:                               0.7220
 vdW POTENTIAL|          Cutoff for CN calculation:                   0.1000E-05

 QS| Method:                                                                 GPW
 QS| Density plane wave grid type                        NON-SPHERICAL FULLSPACE
 QS| Number of grid levels:                                                    5
 QS| Density cutoff [a.u.]:                                                300.0
 QS| Multi grid cutoff [a.u.]: 1) grid level                               300.0
 QS|                           2) grid level                               100.0
 QS|                           3) grid level                                33.3
 QS|                           4) grid level                                11.1
 QS|                           5) grid level                                 3.7
 QS| Grid level progression factor:                                          3.0
 QS| Relative density cutoff [a.u.]:                                        30.0
 QS| Interaction thresholds: eps_pgf_orb:                                1.0E-06
 QS|                         eps_filter_matrix:                          0.0E+00
 QS|                         eps_core_charge:                            1.0E-14
 QS|                         eps_rho_gspace:                             1.0E-12
 QS|                         eps_rho_rspace:                             1.0E-12
 QS|                         eps_gvg_rspace:                             1.0E-06
 QS|                         eps_ppl:                                    1.0E-02
 QS|                         eps_ppnl:                                   1.0E-08


 ATOMIC KIND INFORMATION

  1. Atomic kind: Ni_i                                  Number of atoms:      16

     Orbital Basis Set                                        DZVP-MOLOPT-SR-GTH

       Number of orbital shell sets:                                           1
       Number of orbital shells:                                               8
       Number of primitive Cartesian functions:                                6
       Number of Cartesian basis functions:                                   31
       Number of spherical basis functions:                                   26
       Norm type:                                                              2

       Normalised Cartesian orbitals:

                        Set   Shell   Orbital            Exponent    Coefficient

                          1       1    2s               10.077428      -0.684558
                                                         5.847736      -0.844524
                                                         2.494033       1.088856
                                                         0.988355       0.395503
                                                         0.344978       0.010224
                                                         0.099466      -0.003250

                          1       2    3s               10.077428       0.096747
                                                         5.847736       0.162504
                                                         2.494033      -0.297192
                                                         0.988355      -0.319752
                                                         0.344978       0.088318
                                                         0.099466       0.118587

                          1       3    4s               10.077428       0.036437
                                                         5.847736      -0.381480
                                                         2.494033       0.003759
                                                         0.988355      -1.048256
                                                         0.344978       0.855825
                                                         0.099466      -0.176350

                          1       4    3px              10.077428      -3.133913
                                                         5.847736       3.027656
                                                         2.494033       2.353227
                                                         0.988355       0.554184
                                                         0.344978       0.019462
                                                         0.099466      -0.000291
                          1       4    3py              10.077428      -3.133913
                                                         5.847736       3.027656
                                                         2.494033       2.353227
                                                         0.988355       0.554184
                                                         0.344978       0.019462
                                                         0.099466      -0.000291
                          1       4    3pz              10.077428      -3.133913
                                                         5.847736       3.027656
                                                         2.494033       2.353227
                                                         0.988355       0.554184
                                                         0.344978       0.019462
                                                         0.099466      -0.000291

                          1       5    4px              10.077428      -0.112729
                                                         5.847736      -0.114008
                                                         2.494033      -0.347303
                                                         0.988355      -0.110323
                                                         0.344978       0.154096
                                                         0.099466       0.058386
                          1       5    4py              10.077428      -0.112729
                                                         5.847736      -0.114008
                                                         2.494033      -0.347303
                                                         0.988355      -0.110323
                                                         0.344978       0.154096
                                                         0.099466       0.058386
                          1       5    4pz              10.077428      -0.112729
                                                         5.847736      -0.114008
                                                         2.494033      -0.347303
                                                         0.988355      -0.110323
                                                         0.344978       0.154096
                                                         0.099466       0.058386

                          1       6    4dx2             10.077428       8.232726
                                                         5.847736       9.105758
                                                         2.494033       2.849835
                                                         0.988355       0.554319
                                                         0.344978       0.067245
                                                         0.099466       0.001940
                          1       6    4dxy             10.077428      14.259500
                                                         5.847736      15.771636
                                                         2.494033       4.936060
                                                         0.988355       0.960109
                                                         0.344978       0.116472
                                                         0.099466       0.003360
                          1       6    4dxz             10.077428      14.259500
                                                         5.847736      15.771636
                                                         2.494033       4.936060
                                                         0.988355       0.960109
                                                         0.344978       0.116472
                                                         0.099466       0.003360
                          1       6    4dy2             10.077428       8.232726
                                                         5.847736       9.105758
                                                         2.494033       2.849835
                                                         0.988355       0.554319
                                                         0.344978       0.067245
                                                         0.099466       0.001940
                          1       6    4dyz             10.077428      14.259500
                                                         5.847736      15.771636
                                                         2.494033       4.936060
                                                         0.988355       0.960109
                                                         0.344978       0.116472
                                                         0.099466       0.003360
                          1       6    4dz2             10.077428       8.232726
                                                         5.847736       9.105758
                                                         2.494033       2.849835
                                                         0.988355       0.554319
                                                         0.344978       0.067245
                                                         0.099466       0.001940

                          1       7    5dx2             10.077428      -2.715373
                                                         5.847736      -4.020640
                                                         2.494033      -1.397569
                                                         0.988355      -0.076143
                                                         0.344978       0.033435
                                                         0.099466       0.026032
                          1       7    5dxy             10.077428      -4.703164
                                                         5.847736      -6.963952
                                                         2.494033      -2.420661
                                                         0.988355      -0.131883
                                                         0.344978       0.057911
                                                         0.099466       0.045088
                          1       7    5dxz             10.077428      -4.703164
                                                         5.847736      -6.963952
                                                         2.494033      -2.420661
                                                         0.988355      -0.131883
                                                         0.344978       0.057911
                                                         0.099466       0.045088
                          1       7    5dy2             10.077428      -2.715373
                                                         5.847736      -4.020640
                                                         2.494033      -1.397569
                                                         0.988355      -0.076143
                                                         0.344978       0.033435
                                                         0.099466       0.026032
                          1       7    5dyz             10.077428      -4.703164
                                                         5.847736      -6.963952
                                                         2.494033      -2.420661
                                                         0.988355      -0.131883
                                                         0.344978       0.057911
                                                         0.099466       0.045088
                          1       7    5dz2             10.077428      -2.715373
                                                         5.847736      -4.020640
                                                         2.494033      -1.397569
                                                         0.988355      -0.076143
                                                         0.344978       0.033435
                                                         0.099466       0.026032

                          1       8    5fx3             10.077428      -0.467694
                                                         5.847736       0.618100
                                                         2.494033       0.066069
                                                         0.988355       0.262898
                                                         0.344978       0.004720
                                                         0.099466       0.007748
                          1       8    5fx2y            10.077428      -1.045795
                                                         5.847736       1.382114
                                                         2.494033       0.147734
                                                         0.988355       0.587859
                                                         0.344978       0.010555
                                                         0.099466       0.017325
                          1       8    5fx2z            10.077428      -1.045795
                                                         5.847736       1.382114
                                                         2.494033       0.147734
                                                         0.988355       0.587859
                                                         0.344978       0.010555
                                                         0.099466       0.017325
                          1       8    5fxy2            10.077428      -1.045795
                                                         5.847736       1.382114
                                                         2.494033       0.147734
                                                         0.988355       0.587859
                                                         0.344978       0.010555
                                                         0.099466       0.017325
                          1       8    5fxyz            10.077428      -1.811371
                                                         5.847736       2.393892
                                                         2.494033       0.255883
                                                         0.988355       1.018201
                                                         0.344978       0.018282
                                                         0.099466       0.030008
                          1       8    5fxz2            10.077428      -1.045795
                                                         5.847736       1.382114
                                                         2.494033       0.147734
                                                         0.988355       0.587859
                                                         0.344978       0.010555
                                                         0.099466       0.017325
                          1       8    5fy3             10.077428      -0.467694
                                                         5.847736       0.618100
                                                         2.494033       0.066069
                                                         0.988355       0.262898
                                                         0.344978       0.004720
                                                         0.099466       0.007748
                          1       8    5fy2z            10.077428      -1.045795
                                                         5.847736       1.382114
                                                         2.494033       0.147734
                                                         0.988355       0.587859
                                                         0.344978       0.010555
                                                         0.099466       0.017325
                          1       8    5fyz2            10.077428      -1.045795
                                                         5.847736       1.382114
                                                         2.494033       0.147734
                                                         0.988355       0.587859
                                                         0.344978       0.010555
                                                         0.099466       0.017325
                          1       8    5fz3             10.077428      -0.467694
                                                         5.847736       0.618100
                                                         2.494033       0.066069
                                                         0.988355       0.262898
                                                         0.344978       0.004720
                                                         0.099466       0.007748

       Atomic covalent radius [Angstrom]:                                  1.150

       Atomic van der Waals radius [Angstrom]:                             1.630

     GTH Potential information for                                   GTH-PBE-q18

       Description:                       Goedecker-Teter-Hutter pseudopotential
                                           Goedecker et al., PRB 54, 1703 (1996)
                                          Hartwigsen et al., PRB 58, 3641 (1998)
                                                      Krack, TCA 114, 145 (2005)

       Gaussian exponent of the core charge distribution:               4.081633
       Electronic configuration (s p d ...):                           4   6   8

       Parameters of the local part of the GTH pseudopotential:

                          rloc        C1          C2          C3          C4
                        0.350000    2.102166    0.648484

       Parameters of the non-local part of the GTH pseudopotential:

                   l      r(l)      h(i,j,l)

                   0    0.261295    0.622658    9.970227
                                    9.970227  -12.871507
                   1    0.224253  -11.142708   12.429566
                                   12.429566  -14.706861
                   2    0.215348  -12.628146

  2. Atomic kind: Ni_b                                  Number of atoms:      16

     Orbital Basis Set                                        DZVP-MOLOPT-SR-GTH

       Number of orbital shell sets:                                           1
       Number of orbital shells:                                               8
       Number of primitive Cartesian functions:                                6
       Number of Cartesian basis functions:                                   31
       Number of spherical basis functions:                                   26
       Norm type:                                                              2

       Normalised Cartesian orbitals:

                        Set   Shell   Orbital            Exponent    Coefficient

                          1       1    2s               10.077428      -0.684558
                                                         5.847736      -0.844524
                                                         2.494033       1.088856
                                                         0.988355       0.395503
                                                         0.344978       0.010224
                                                         0.099466      -0.003250

                          1       2    3s               10.077428       0.096747
                                                         5.847736       0.162504
                                                         2.494033      -0.297192
                                                         0.988355      -0.319752
                                                         0.344978       0.088318
                                                         0.099466       0.118587

                          1       3    4s               10.077428       0.036437
                                                         5.847736      -0.381480
                                                         2.494033       0.003759
                                                         0.988355      -1.048256
                                                         0.344978       0.855825
                                                         0.099466      -0.176350

                          1       4    3px              10.077428      -3.133913
                                                         5.847736       3.027656
                                                         2.494033       2.353227
                                                         0.988355       0.554184
                                                         0.344978       0.019462
                                                         0.099466      -0.000291
                          1       4    3py              10.077428      -3.133913
                                                         5.847736       3.027656
                                                         2.494033       2.353227
                                                         0.988355       0.554184
                                                         0.344978       0.019462
                                                         0.099466      -0.000291
                          1       4    3pz              10.077428      -3.133913
                                                         5.847736       3.027656
                                                         2.494033       2.353227
                                                         0.988355       0.554184
                                                         0.344978       0.019462
                                                         0.099466      -0.000291

                          1       5    4px              10.077428      -0.112729
                                                         5.847736      -0.114008
                                                         2.494033      -0.347303
                                                         0.988355      -0.110323
                                                         0.344978       0.154096
                                                         0.099466       0.058386
                          1       5    4py              10.077428      -0.112729
                                                         5.847736      -0.114008
                                                         2.494033      -0.347303
                                                         0.988355      -0.110323
                                                         0.344978       0.154096
                                                         0.099466       0.058386
                          1       5    4pz              10.077428      -0.112729
                                                         5.847736      -0.114008
                                                         2.494033      -0.347303
                                                         0.988355      -0.110323
                                                         0.344978       0.154096
                                                         0.099466       0.058386

                          1       6    4dx2             10.077428       8.232726
                                                         5.847736       9.105758
                                                         2.494033       2.849835
                                                         0.988355       0.554319
                                                         0.344978       0.067245
                                                         0.099466       0.001940
                          1       6    4dxy             10.077428      14.259500
                                                         5.847736      15.771636
                                                         2.494033       4.936060
                                                         0.988355       0.960109
                                                         0.344978       0.116472
                                                         0.099466       0.003360
                          1       6    4dxz             10.077428      14.259500
                                                         5.847736      15.771636
                                                         2.494033       4.936060
                                                         0.988355       0.960109
                                                         0.344978       0.116472
                                                         0.099466       0.003360
                          1       6    4dy2             10.077428       8.232726
                                                         5.847736       9.105758
                                                         2.494033       2.849835
                                                         0.988355       0.554319
                                                         0.344978       0.067245
                                                         0.099466       0.001940
                          1       6    4dyz             10.077428      14.259500
                                                         5.847736      15.771636
                                                         2.494033       4.936060
                                                         0.988355       0.960109
                                                         0.344978       0.116472
                                                         0.099466       0.003360
                          1       6    4dz2             10.077428       8.232726
                                                         5.847736       9.105758
                                                         2.494033       2.849835
                                                         0.988355       0.554319
                                                         0.344978       0.067245
                                                         0.099466       0.001940

                          1       7    5dx2             10.077428      -2.715373
                                                         5.847736      -4.020640
                                                         2.494033      -1.397569
                                                         0.988355      -0.076143
                                                         0.344978       0.033435
                                                         0.099466       0.026032
                          1       7    5dxy             10.077428      -4.703164
                                                         5.847736      -6.963952
                                                         2.494033      -2.420661
                                                         0.988355      -0.131883
                                                         0.344978       0.057911
                                                         0.099466       0.045088
                          1       7    5dxz             10.077428      -4.703164
                                                         5.847736      -6.963952
                                                         2.494033      -2.420661
                                                         0.988355      -0.131883
                                                         0.344978       0.057911
                                                         0.099466       0.045088
                          1       7    5dy2             10.077428      -2.715373
                                                         5.847736      -4.020640
                                                         2.494033      -1.397569
                                                         0.988355      -0.076143
                                                         0.344978       0.033435
                                                         0.099466       0.026032
                          1       7    5dyz             10.077428      -4.703164
                                                         5.847736      -6.963952
                                                         2.494033      -2.420661
                                                         0.988355      -0.131883
                                                         0.344978       0.057911
                                                         0.099466       0.045088
                          1       7    5dz2             10.077428      -2.715373
                                                         5.847736      -4.020640
                                                         2.494033      -1.397569
                                                         0.988355      -0.076143
                                                         0.344978       0.033435
                                                         0.099466       0.026032

                          1       8    5fx3             10.077428      -0.467694
                                                         5.847736       0.618100
                                                         2.494033       0.066069
                                                         0.988355       0.262898
                                                         0.344978       0.004720
                                                         0.099466       0.007748
                          1       8    5fx2y            10.077428      -1.045795
                                                         5.847736       1.382114
                                                         2.494033       0.147734
                                                         0.988355       0.587859
                                                         0.344978       0.010555
                                                         0.099466       0.017325
                          1       8    5fx2z            10.077428      -1.045795
                                                         5.847736       1.382114
                                                         2.494033       0.147734
                                                         0.988355       0.587859
                                                         0.344978       0.010555
                                                         0.099466       0.017325
                          1       8    5fxy2            10.077428      -1.045795
                                                         5.847736       1.382114
                                                         2.494033       0.147734
                                                         0.988355       0.587859
                                                         0.344978       0.010555
                                                         0.099466       0.017325
                          1       8    5fxyz            10.077428      -1.811371
                                                         5.847736       2.393892
                                                         2.494033       0.255883
                                                         0.988355       1.018201
                                                         0.344978       0.018282
                                                         0.099466       0.030008
                          1       8    5fxz2            10.077428      -1.045795
                                                         5.847736       1.382114
                                                         2.494033       0.147734
                                                         0.988355       0.587859
                                                         0.344978       0.010555
                                                         0.099466       0.017325
                          1       8    5fy3             10.077428      -0.467694
                                                         5.847736       0.618100
                                                         2.494033       0.066069
                                                         0.988355       0.262898
                                                         0.344978       0.004720
                                                         0.099466       0.007748
                          1       8    5fy2z            10.077428      -1.045795
                                                         5.847736       1.382114
                                                         2.494033       0.147734
                                                         0.988355       0.587859
                                                         0.344978       0.010555
                                                         0.099466       0.017325
                          1       8    5fyz2            10.077428      -1.045795
                                                         5.847736       1.382114
                                                         2.494033       0.147734
                                                         0.988355       0.587859
                                                         0.344978       0.010555
                                                         0.099466       0.017325
                          1       8    5fz3             10.077428      -0.467694
                                                         5.847736       0.618100
                                                         2.494033       0.066069
                                                         0.988355       0.262898
                                                         0.344978       0.004720
                                                         0.099466       0.007748

       Atomic covalent radius [Angstrom]:                                  1.150

       Atomic van der Waals radius [Angstrom]:                             1.630

     GTH Potential information for                                   GTH-PBE-q18

       Description:                       Goedecker-Teter-Hutter pseudopotential
                                           Goedecker et al., PRB 54, 1703 (1996)
                                          Hartwigsen et al., PRB 58, 3641 (1998)
                                                      Krack, TCA 114, 145 (2005)

       Gaussian exponent of the core charge distribution:               4.081633
       Electronic configuration (s p d ...):                           4   6   8

       Parameters of the local part of the GTH pseudopotential:

                          rloc        C1          C2          C3          C4
                        0.350000    2.102166    0.648484

       Parameters of the non-local part of the GTH pseudopotential:

                   l      r(l)      h(i,j,l)

                   0    0.261295    0.622658    9.970227
                                    9.970227  -12.871507
                   1    0.224253  -11.142708   12.429566
                                   12.429566  -14.706861
                   2    0.215348  -12.628146


 MOLECULE KIND INFORMATION


 All atoms are their own molecule, skipping detailed information


 TOTAL NUMBERS AND MAXIMUM NUMBERS

  Total number of            - Atomic kinds:                                   2
                             - Atoms:                                         32
                             - Shell sets:                                    32
                             - Shells:                                       256
                             - Primitive Cartesian functions:                192
                             - Cartesian basis functions:                    992
                             - Spherical basis functions:                    832

  Maximum angular momentum of- Orbital basis functions:                        3
                             - Local part of the GTH pseudopotential:          2
                             - Non-local part of the GTH pseudopotential:      3


 MODULE QUICKSTEP: ATOMIC COORDINATES IN ANGSTROM

   Atom Kind Element         X             Y             Z       Z(eff)     Mass
      1    1 Ni   28      0.876298      0.876298      7.370500  18.0000  58.6934
      2    1 Ni   28      0.876298      4.382298      7.370500  18.0000  58.6934
      3    1 Ni   28      2.629298      2.629298      7.370500  18.0000  58.6934
      4    1 Ni   28      2.629298      6.135298      7.370500  18.0000  58.6934
      5    1 Ni   28      4.382298      0.876298      7.370500  18.0000  58.6934
      6    1 Ni   28      4.382298      4.382298      7.370500  18.0000  58.6934
      7    1 Ni   28      6.135298      2.629298      7.370500  18.0000  58.6934
      8    1 Ni   28      6.135298      6.135298      7.370500  18.0000  58.6934
      9    2 Ni   28      0.876298      2.629298      9.123500  18.0000  58.6934
     10    2 Ni   28      0.876298      6.135298      9.123500  18.0000  58.6934
     11    2 Ni   28      2.629298      0.876298      9.123500  18.0000  58.6934
     12    2 Ni   28      2.629298      4.382298      9.123500  18.0000  58.6934
     13    2 Ni   28      4.382298      2.629298      9.123500  18.0000  58.6934
     14    2 Ni   28      4.382298      6.135298      9.123500  18.0000  58.6934
     15    2 Ni   28      6.135298      0.876298      9.123500  18.0000  58.6934
     16    2 Ni   28      6.135298      4.382298      9.123500  18.0000  58.6934
     17    2 Ni   28      0.876298      0.876298     10.876500  18.0000  58.6934
     18    2 Ni   28      0.876298      4.382298     10.876500  18.0000  58.6934
     19    2 Ni   28      2.629298      2.629298     10.876500  18.0000  58.6934
     20    2 Ni   28      2.629298      6.135298     10.876500  18.0000  58.6934
     21    2 Ni   28      4.382298      0.876298     10.876500  18.0000  58.6934
     22    2 Ni   28      4.382298      4.382298     10.876500  18.0000  58.6934
     23    2 Ni   28      6.135298      2.629298     10.876500  18.0000  58.6934
     24    2 Ni   28      6.135298      6.135298     10.876500  18.0000  58.6934
     25    1 Ni   28      0.876298      2.629298     12.629500  18.0000  58.6934
     26    1 Ni   28      0.876298      6.135298     12.629500  18.0000  58.6934
     27    1 Ni   28      2.629298      0.876298     12.629500  18.0000  58.6934
     28    1 Ni   28      2.629298      4.382298     12.629500  18.0000  58.6934
     29    1 Ni   28      4.382298      2.629298     12.629500  18.0000  58.6934
     30    1 Ni   28      4.382298      6.135298     12.629500  18.0000  58.6934
     31    1 Ni   28      6.135298      0.876298     12.629500  18.0000  58.6934
     32    1 Ni   28      6.135298      4.382298     12.629500  18.0000  58.6934



 SCF PARAMETERS         Density guess:                                    ATOMIC
                        --------------------------------------------------------
                        max_scf:                                             500
                        max_scf_history:                                       0
                        max_diis:                                              4
                        --------------------------------------------------------
                        eps_scf:                                        1.00E-04
                        eps_scf_history:                                0.00E+00
                        eps_diis:                                       1.00E-01
                        eps_eigval:                                     1.00E-05
                        --------------------------------------------------------
                        level_shift [a.u.]:                             0.000000
                        added MOs                                       534  553
                        --------------------------------------------------------
                        Mixing method:                            BROYDEN_MIXING
                                                charge density mixing in g-space
                        --------------------------------------------------------
                        Smear method:                                FERMI_DIRAC
                        Electronic temperature [K]:                       2000.0
                        Electronic temperature [a.u.]:                  6.33E-03
                        Accuracy threshold:                             1.00E-10
                        --------------------------------------------------------
                        No outer SCF

 PW_GRID| Information for grid number                                          1
 PW_GRID| Grid distributed over                                   128 processors
 PW_GRID| Real space group dimensions                                     8   16
 PW_GRID| the grid is blocked:                                               YES
 PW_GRID| Cutoff [a.u.]                                                    300.0
 PW_GRID| spherical cutoff:                                                   NO
 PW_GRID|   Bounds   1            -54      53                Points:         108
 PW_GRID|   Bounds   2            -54      53                Points:         108
 PW_GRID|   Bounds   3           -150     149                Points:         300
 PW_GRID| Volume element (a.u.^3)  0.1896E-02     Volume (a.u.^3)      6635.2971
 PW_GRID| Grid span                                                    FULLSPACE
 PW_GRID|   Distribution                         Average         Max         Min
 PW_GRID|   G-Vectors                            27337.5       28728       25272
 PW_GRID|   G-Rays                                 253.1         266         234
 PW_GRID|   Real Space Points                    27337.5       28728       25272

 PW_GRID| Information for grid number                                          2
 PW_GRID| Number of the reference grid                                         1
 PW_GRID| Grid distributed over                                   128 processors
 PW_GRID| Real space group dimensions                                     8   16
 PW_GRID| the grid is blocked:                                                NO
 PW_GRID| Cutoff [a.u.]                                                    100.0
 PW_GRID| spherical cutoff:                                                   NO
 PW_GRID|   Bounds   1            -30      29                Points:          60
 PW_GRID|   Bounds   2            -30      29                Points:          60
 PW_GRID|   Bounds   3            -90      89                Points:         180
 PW_GRID| Volume element (a.u.^3)  0.1024E-01     Volume (a.u.^3)      6635.2971
 PW_GRID| Grid span                                                    FULLSPACE
 PW_GRID|   Distribution                         Average         Max         Min
 PW_GRID|   G-Vectors                             5062.5       15960           0
 PW_GRID|   G-Rays                                  84.4         266           0
 PW_GRID|   Real Space Points                     5062.5        5760        3780

 PW_GRID| Information for grid number                                          3
 PW_GRID| Number of the reference grid                                         1
 PW_GRID| Grid distributed over                                   128 processors
 PW_GRID| Real space group dimensions                                     8   16
 PW_GRID| the grid is blocked:                                                NO
 PW_GRID| Cutoff [a.u.]                                                     33.3
 PW_GRID| spherical cutoff:                                                   NO
 PW_GRID|   Bounds   1            -18      17                Points:          36
 PW_GRID|   Bounds   2            -18      17                Points:          36
 PW_GRID|   Bounds   3            -50      49                Points:         100
 PW_GRID| Volume element (a.u.^3)  0.5120E-01     Volume (a.u.^3)      6635.2971
 PW_GRID| Grid span                                                    FULLSPACE
 PW_GRID|   Distribution                         Average         Max         Min
 PW_GRID|   G-Vectors                             1012.5        9576           0
 PW_GRID|   G-Rays                                  28.1         266           0
 PW_GRID|   Real Space Points                     1012.5        1500         800

 PW_GRID| Information for grid number                                          4
 PW_GRID| Number of the reference grid                                         1
 PW_GRID| Grid distributed over                                   128 processors
 PW_GRID| Real space group dimensions                                     8   16
 PW_GRID| the grid is blocked:                                                NO
 PW_GRID| Cutoff [a.u.]                                                     11.1
 PW_GRID| spherical cutoff:                                                   NO
 PW_GRID|   Bounds   1            -10       9                Points:          20
 PW_GRID|   Bounds   2            -10       9                Points:          20
 PW_GRID|   Bounds   3            -30      29                Points:          60
 PW_GRID| Volume element (a.u.^3)  0.2765         Volume (a.u.^3)      6635.2971
 PW_GRID| Grid span                                                    FULLSPACE
 PW_GRID|   Distribution                         Average         Max         Min
 PW_GRID|   G-Vectors                              187.5        3800           0
 PW_GRID|   G-Rays                                   9.4         190           0
 PW_GRID|   Real Space Points                      187.5         360         120

 PW_GRID| Information for grid number                                          5
 PW_GRID| Number of the reference grid                                         1
 PW_GRID| Grid distributed over                                   128 processors
 PW_GRID| Real space group dimensions                                     8   16
 PW_GRID| the grid is blocked:                                                NO
 PW_GRID| Cutoff [a.u.]                                                      3.7
 PW_GRID| spherical cutoff:                                                   NO
 PW_GRID|   Bounds   1             -6       5                Points:          12
 PW_GRID|   Bounds   2             -6       5                Points:          12
 PW_GRID|   Bounds   3            -18      17                Points:          36
 PW_GRID| Volume element (a.u.^3)   1.280         Volume (a.u.^3)      6635.2971
 PW_GRID| Grid span                                                    FULLSPACE
 PW_GRID|   Distribution                         Average         Max         Min
 PW_GRID|   G-Vectors                               40.5        1296           0
 PW_GRID|   G-Rays                                   3.4         108           0
 PW_GRID|   Real Space Points                       40.5          72           0

 POISSON| Solver                                                        PERIODIC
 POISSON| Periodicity                                                        XYZ

 RS_GRID| Information for grid number                                          1
 RS_GRID|   Bounds   1            -54      53                Points:         108
 RS_GRID|   Bounds   2            -54      53                Points:         108
 RS_GRID|   Bounds   3           -150     149                Points:         300
 RS_GRID| Real space distribution over                                  8 groups
 RS_GRID| Real space distribution along direction                              2
 RS_GRID| Border size                                                         28
 RS_GRID| Real space distribution over                                 16 groups
 RS_GRID| Real space distribution along direction                              3
 RS_GRID| Border size                                                         28
 RS_GRID|   Distribution                         Average         Max         Min
 RS_GRID|   Planes                                  69.5          70          69
 RS_GRID|   Distribution                         Average         Max         Min
 RS_GRID|   Planes                                  74.8          75          74

 RS_GRID| Information for grid number                                          2
 RS_GRID|   Bounds   1            -30      29                Points:          60
 RS_GRID|   Bounds   2            -30      29                Points:          60
 RS_GRID|   Bounds   3            -90      89                Points:         180
 RS_GRID| Real space fully replicated
 RS_GRID| Group size                                                           1

 RS_GRID| Information for grid number                                          3
 RS_GRID|   Bounds   1            -18      17                Points:          36
 RS_GRID|   Bounds   2            -18      17                Points:          36
 RS_GRID|   Bounds   3            -50      49                Points:         100
 RS_GRID| Real space fully replicated
 RS_GRID| Group size                                                           1

 RS_GRID| Information for grid number                                          4
 RS_GRID|   Bounds   1            -10       9                Points:          20
 RS_GRID|   Bounds   2            -10       9                Points:          20
 RS_GRID|   Bounds   3            -30      29                Points:          60
 RS_GRID| Real space fully replicated
 RS_GRID| Group size                                                           1

 RS_GRID| Information for grid number                                          5
 RS_GRID|   Bounds   1             -6       5                Points:          12
 RS_GRID|   Bounds   2             -6       5                Points:          12
 RS_GRID|   Bounds   3            -18      17                Points:          36
 RS_GRID| Real space fully replicated
 RS_GRID| Group size                                                           1

 Spin 1

 Number of electrons:                                                        297.600
 Number of occupied orbitals:                                                298
 Number of molecular orbitals:                                               832

 Spin 2

 Number of electrons:                                                        278.400
 Number of occupied orbitals:                                                279
 Number of molecular orbitals:                                               832

 Number of orbital functions:                                                832
 Number of independent orbital functions:                                    832

 Extrapolation method: initial_guess

 Atomic guess: The first density matrix is obtained in terms of atomic orbitals
               and electronic configurations assigned to each atomic kind

 Guess for atomic kind: Ni_i

 Electronic structure
    Total number of core electrons                                         10.00
    Total number of valence electrons                                      18.00
    Total number of electrons                                              28.00
    Multiplicity                                                         doublet
    Alpha Electrons
    S   [  1.00  1.00] 1.00  1.00
    P   [  3.00] 3.00
    D      4.35
    Beta Electrons
    S   [  1.00  1.00] 1.00  1.00
    P   [  3.00] 3.00
    D      3.65


 *******************************************************************************
                  Iteration          Convergence                     Energy [au]
 *******************************************************************************
                          1         1.51729                    -167.067424631347
                          2         15.3902                    -156.642654318634
                          3         2.33433                    -168.319355313541
                          4        0.206730                    -168.609905008081
                          5        0.814175E-01                -168.612873080494
                          6        0.173318E-01                -168.613470181066
                          7        0.290432E-02                -168.613543571401
                          8        0.311825E-02                -168.613543401474
                          9        0.179670E-03                -168.613544404477
                         10        0.169386E-02                -168.613544207811
                         11        0.473341E-03                -168.613544360253
                         12        0.165417E-03                -168.613544400419
                         13        0.162622E-03                -168.613544401489
                         14        0.158325E-03                -168.613544403900
                         15        0.177007E-03                -168.613544402509
                         16        0.138916E-03                -168.613544404900
                         17        0.934549E-04                -168.613544406149
                         18        0.119916E-03                -168.613544405789
                         19        0.131607E-03                -168.613544405591
                         20        0.169309E-03                -168.613544404773
                         21        0.551337E-04                -168.613544406656
                         22        0.382664E-04                -168.613544406759
                         23        0.378942E-04                -168.613544406765
                         24        0.381089E-04                -168.613544406765
                         25        0.390835E-04                -168.613544406759
                         26        0.308614E-04                -168.613544406841
                         27        0.205044E-04                -168.613544406892
                         28        0.200942E-04                -168.613544406893
                         29        0.199375E-04                -168.613544406893
                         30        0.200198E-04                -168.613544406894
                         31        0.161325E-04                -168.613544406903
                         32        0.330614E-05                -168.613544406925
                         33        0.238713E-05                -168.613544406926
                         34        0.265439E-05                -168.613544406926
                         35        0.277073E-05                -168.613544406926
                         36        0.335175E-05                -168.613544406926
                         37        0.148809E-05                -168.613544406927
                         38        0.133447E-05                -168.613544406927
                         39        0.918735E-06                -168.613544406927

 Energy components [Hartree]           Total Energy ::         -168.613544406927
                                        Band Energy ::          -26.569761966525
                                     Kinetic Energy ::           97.306723392622
                                   Potential Energy ::         -265.920267799548
                                      Virial (-V/T) ::            2.732804666812
                                        Core Energy ::         -299.567979157577
                                          XC Energy ::          -16.227189041387
                                     Coulomb Energy ::          147.181623792037
                       Total Pseudopotential Energy ::         -396.961043505191
                       Local Pseudopotential Energy ::         -362.648291121960
                    Nonlocal Pseudopotential Energy ::          -34.312752383230
                                        Confinement ::            0.863409549921

 Orbital energies  State     Spin  L     Occupation   Energy[a.u.]    Energy[eV]

                       1    alpha  0          1.000      -4.172666   -113.544030
                       2    alpha  0          1.000      -0.181431     -4.936983
                       1     beta  0          1.000      -4.140640   -112.672541
                       2     beta  0          1.000      -0.176372     -4.799339

                       1    alpha  1          3.000      -2.578739    -70.171064
                       1     beta  1          3.000      -2.547579    -69.323162

                       1    alpha  2          4.350      -0.327039     -8.899191
                       1     beta  2          3.650      -0.300569     -8.178887


 Total Electron Density at R=0:                                         0.030422

 Guess for atomic kind: Ni_b

 Electronic structure
    Total number of core electrons                                         10.00
    Total number of valence electrons                                      18.00
    Total number of electrons                                              28.00
    Multiplicity                                                         doublet
    Alpha Electrons
    S   [  1.00  1.00] 1.00  1.00
    P   [  3.00] 3.00
    D      4.25
    Beta Electrons
    S   [  1.00  1.00] 1.00  1.00
    P   [  3.00] 3.00
    D      3.75


 *******************************************************************************
                  Iteration          Convergence                     Energy [au]
 *******************************************************************************
                          1         1.51687                    -167.065012761055
                          2         14.9817                    -156.620431300845
                          3         2.25575                    -168.317311438693
                          4        0.189210                    -168.607926092750
                          5        0.708658E-01                -168.610773319290
                          6        0.122256E-01                -168.611238205502
                          7        0.598421E-02                -168.611272268995
                          8        0.528277E-02                -168.611272438110
                          9        0.104644E-02                -168.611275321653
                         10        0.260234E-02                -168.611274926630
                         11        0.975322E-03                -168.611275328217
                         12        0.161067E-03                -168.611275447773
                         13        0.147413E-03                -168.611275446839
                         14        0.115114E-03                -168.611275449434
                         15        0.167217E-03                -168.611275445436
                         16        0.255374E-04                -168.611275450531
                         17        0.418369E-04                -168.611275450414
                         18        0.393709E-04                -168.611275450477
                         19        0.239931E-04                -168.611275450542
                         20        0.173885E-04                -168.611275450557
                         21        0.851368E-05                -168.611275450578
                         22        0.849928E-05                -168.611275450580
                         23        0.544937E-05                -168.611275450584
                         24        0.540003E-05                -168.611275450586
                         25        0.613371E-05                -168.611275450584
                         26        0.311593E-06                -168.611275450588

 Energy components [Hartree]           Total Energy ::         -168.611275450588
                                        Band Energy ::          -26.568680144499
                                     Kinetic Energy ::           97.303659243130
                                   Potential Energy ::         -265.914934693718
                                      Virial (-V/T) ::            2.732835915546
                                        Core Energy ::         -299.566189183323
                                          XC Energy ::          -16.224592878785
                                     Coulomb Energy ::          147.179506611520
                       Total Pseudopotential Energy ::         -396.956189041778
                       Local Pseudopotential Energy ::         -362.645043136649
                    Nonlocal Pseudopotential Energy ::          -34.311145905129
                                        Confinement ::            0.863406153250

 Orbital energies  State     Spin  L     Occupation   Energy[a.u.]    Energy[eV]

                       1    alpha  0          1.000      -4.168335   -113.426177
                       2    alpha  0          1.000      -0.180730     -4.917906
                       1     beta  0          1.000      -4.145459   -112.803683
                       2     beta  0          1.000      -0.177117     -4.819606

                       1    alpha  1          3.000      -2.574525    -70.056390
                       1     beta  1          3.000      -2.552268    -69.450746

                       1    alpha  2          4.250      -0.323446     -8.801405
                       1     beta  2          3.750      -0.304537     -8.286881


 Total Electron Density at R=0:                                         0.030429

 Spin 1
 Re-scaling the density matrix to get the right number of electrons for spin 1
                  # Electrons              Trace(P)               Scaling factor
                        297.600             297.600                        1.000

 Spin 2
 Re-scaling the density matrix to get the right number of electrons for spin 2
                  # Electrons              Trace(P)               Scaling factor
                        278.400             278.400                        1.000


 SCF WAVEFUNCTION OPTIMIZATION

  Step     Update method      Time    Convergence         Total energy    Change
  ------------------------------------------------------------------------------
     1 NoMix/Diag. 0.10E-01    1.9     0.87318318     -5426.4441344177 -5.43E+03
     2 Broy./Diag. 0.10E-01    1.5     0.01221929     -5311.9287922098  1.15E+02
[...]
   124 Broy./Diag. 0.10E-01    1.5     0.00461766     -5417.8184576225  1.15E-02
   125 Broy./Diag. 0.10E-01    1.5     0.00241619     -5417.7071348678  1.11E-01
   126 Broy./Diag. 0.10E-01    1.5     0.00531620     -5417.6991467266  7.99E-03
   127 Broy./Diag. 0.10E-01    1.5     0.00305659     -5417.9013637116 -2.02E-01
   128 Broy./Diag. 0.10E-01    1.5     0.00075643     -5418.0216124142 -1.20E-01
   129 Broy./Diag. 0.10E-01    1.5     0.00735157     -5418.0434097693 -2.18E-02
   130 Broy./Diag. 0.10E-01    1.5     0.00413783     -5418.0117837693  3.16E-02
   131 Broy./Diag. 0.10E-01    1.5     0.00108883     -5418.1420909804 -1.30E-01
   132 Broy./Diag. 0.10E-01    1.5     0.00141346     -5418.1526055646 -1.05E-02
   133 Broy./Diag. 0.10E-01    1.5     0.00257904     -5418.1531074895 -5.02E-04
   134 Broy./Diag. 0.10E-01    1.5     0.00237514     -5418.1445364512  8.57E-03
   135 Broy./Diag. 0.10E-01    1.5     0.00359368     -5418.1746939430 -3.02E-02
   136 Broy./Diag. 0.10E-01    1.5     0.00535584     -5418.2007792912 -2.61E-02
   137 Broy./Diag. 0.10E-01    1.5     0.01283771     -5418.1525746735  4.82E-02
   138 Broy./Diag. 0.10E-01    1.5     0.00470387     -5418.1682217288 -1.56E-02
   139 Broy./Diag. 0.10E-01    1.5     0.00889652     -5418.1769342497 -8.71E-03
   140 Broy./Diag. 0.10E-01    1.5     0.00251790     -5417.8493560708  3.28E-01
   141 Broy./Diag. 0.10E-01    1.5     0.00391363     -5417.6411746099  2.08E-01
   142 Broy./Diag. 0.10E-01    1.5     0.00595881     -5417.7420464581 -1.01E-01
   143 Broy./Diag. 0.10E-01    1.5     0.00284406     -5417.8388744952 -9.68E-02
   144 Broy./Diag. 0.10E-01    1.5     0.00327947     -5417.7856901380  5.32E-02
   145 Broy./Diag. 0.10E-01    1.5     0.00603282     -5417.7780013437  7.69E-03
   146 Broy./Diag. 0.10E-01    1.5     0.01080590     -5417.6691078811  1.09E-01
   147 Broy./Diag. 0.10E-01    1.5     0.00154522     -5418.0259707152 -3.57E-01
   148 Broy./Diag. 0.10E-01    1.5     0.01026057     -5418.1070933783 -8.11E-02
   149 Broy./Diag. 0.10E-01    1.5     0.02779245     -5418.2276754322 -1.21E-01
   150 Broy./Diag. 0.10E-01    1.5     0.00924138     -5417.9975537209  2.30E-01
   151 Broy./Diag. 0.10E-01    1.5     0.02737571     -5417.6333599764  3.64E-01
   152 Broy./Diag. 0.10E-01    1.5     0.00671117     -5417.8423384354 -2.09E-01
   153 Broy./Diag. 0.10E-01    1.5     0.02844790     -5417.7176996370  1.25E-01
   154 Broy./Diag. 0.10E-01    1.5     0.01301521     -5417.4081471061  3.10E-01
   155 Broy./Diag. 0.10E-01    1.5     0.01458368     -5417.5767743879 -1.69E-01
   156 Broy./Diag. 0.10E-01    1.5     0.01793416     -5417.7288619566 -1.52E-01
   157 Broy./Diag. 0.10E-01    1.5     0.01619751     -5417.8590968335 -1.30E-01
   158 Broy./Diag. 0.10E-01    1.5     0.02975666     -5418.0166816021 -1.58E-01
   159 Broy./Diag. 0.10E-01    1.5     0.04061490     -5417.9499394640  6.67E-02
   160 Broy./Diag. 0.10E-01    1.5     0.02129535     -5417.6430283350  3.07E-01
   161 Broy./Diag. 0.10E-01    1.5     0.01288188     -5417.8434840206 -2.00E-01
   162 Broy./Diag. 0.10E-01    1.5     0.01090973     -5417.8546812684 -1.12E-02
   163 Broy./Diag. 0.10E-01    1.5     0.00821434     -5417.8453186712  9.36E-03
   164 Broy./Diag. 0.10E-01    1.5     0.00992198     -5417.9000755415 -5.48E-02
   165 Broy./Diag. 0.10E-01    1.5     0.01124729     -5417.8825256608  1.75E-02
   166 Broy./Diag. 0.10E-01    1.5     0.02098647     -5417.8804930425  2.03E-03
   167 Broy./Diag. 0.10E-01    1.5     0.01309283     -5418.1921703287 -3.12E-01
   168 Broy./Diag. 0.10E-01    1.5     0.00433822     -5418.1284043305  6.38E-02
   169 Broy./Diag. 0.10E-01    1.5     0.00884031     -5418.1270517429  1.35E-03
   170 Broy./Diag. 0.10E-01    1.5     0.00765392     -5417.9358087049  1.91E-01
   171 Broy./Diag. 0.10E-01    1.5     0.00380666     -5418.1261503236 -1.90E-01
   172 Broy./Diag. 0.10E-01    1.5     0.03168399     -5418.0861680783  4.00E-02
   173 Broy./Diag. 0.10E-01    1.5     0.01558964     -5417.7993701595  2.87E-01
   174 Broy./Diag. 0.10E-01    1.5     0.00509632     -5417.8807635905 -8.14E-02
   175 Broy./Diag. 0.10E-01    1.5     0.04746605     -5417.9947246387 -1.14E-01
   176 Broy./Diag. 0.10E-01    1.5     0.00326524     -5418.0992635170 -1.05E-01
   177 Broy./Diag. 0.10E-01    1.5     0.02827794     -5418.1134325576 -1.42E-02
   178 Broy./Diag. 0.10E-01    1.5     0.01222726     -5418.2833900508 -1.70E-01
   179 Broy./Diag. 0.10E-01    1.5     0.01213356     -5418.3779035711 -9.45E-02
   180 Broy./Diag. 0.10E-01    1.5     0.00146171     -5418.3673241939  1.06E-02
   181 Broy./Diag. 0.10E-01    1.5     0.00253471     -5418.4683490502 -1.01E-01
   182 Broy./Diag. 0.10E-01    1.5     0.01930948     -5418.4439540809  2.44E-02
   183 Broy./Diag. 0.10E-01    1.5     0.00414471     -5418.2174667967  2.26E-01
   184 Broy./Diag. 0.10E-01    1.5     0.02108684     -5418.4429919669 -2.26E-01
   185 Broy./Diag. 0.10E-01    1.5     0.02071964     -5418.4441251436 -1.13E-03
   186 Broy./Diag. 0.10E-01    1.5     0.01011592     -5418.2801831609  1.64E-01
   187 Broy./Diag. 0.10E-01    1.5     0.01099643     -5418.4463899066 -1.66E-01
   188 Broy./Diag. 0.10E-01    1.5     0.00289674     -5418.3524139895  9.40E-02
   189 Broy./Diag. 0.10E-01    1.5     0.01213239     -5418.3533426998 -9.29E-04
   190 Broy./Diag. 0.10E-01    1.5     0.00373784     -5418.3610819544 -7.74E-03
   191 Broy./Diag. 0.10E-01    1.5     0.00462798     -5418.2735624311  8.75E-02
   192 Broy./Diag. 0.10E-01    1.5     0.02443461     -5418.3393681432 -6.58E-02
   193 Broy./Diag. 0.10E-01    1.5     0.01945342     -5418.5883380661 -2.49E-01
   194 Broy./Diag. 0.10E-01    1.5     0.01205580     -5418.5789121141  9.43E-03
   195 Broy./Diag. 0.10E-01    1.5     0.03338135     -5418.5323928198  4.65E-02
   196 Broy./Diag. 0.10E-01    1.5     0.00581853     -5418.4284806314  1.04E-01
   197 Broy./Diag. 0.10E-01    1.5     0.01955365     -5418.2784976984  1.50E-01
   198 Broy./Diag. 0.10E-01    1.5     0.02809243     -5418.3307393033 -5.22E-02
   199 Broy./Diag. 0.10E-01    1.5     0.02754936     -5418.6518157537 -3.21E-01
   200 Broy./Diag. 0.10E-01    1.6     0.00683740     -5418.4641232208  1.88E-01
   201 Broy./Diag. 0.10E-01    1.5     0.01720471     -5418.4320979872  3.20E-02
   202 Broy./Diag. 0.10E-01    1.5     0.00286121     -5418.0667124471  3.65E-01
   203 Broy./Diag. 0.10E-01    1.5     0.01706833     -5418.1680240441 -1.01E-01
   204 Broy./Diag. 0.10E-01    1.5     0.03105491     -5418.3100605595 -1.42E-01
   205 Broy./Diag. 0.10E-01    1.5     0.01095454     -5418.0203797663  2.90E-01
   206 Broy./Diag. 0.10E-01    1.5     0.02075430     -5417.9934954576  2.69E-02
   207 Broy./Diag. 0.10E-01    1.5     0.01254900     -5418.1313231483 -1.38E-01
   208 Broy./Diag. 0.10E-01    1.5     0.05920850     -5418.1237376831  7.59E-03
   209 Broy./Diag. 0.10E-01    1.5     0.00555709     -5417.8003115604  3.23E-01
   210 Broy./Diag. 0.10E-01    1.5     0.01366350     -5417.7595385554  4.08E-02
   211 Broy./Diag. 0.10E-01    1.5     0.00472033     -5417.7369748524  2.26E-02
   212 Broy./Diag. 0.10E-01    1.5     0.01540615     -5417.7579773206 -2.10E-02
   213 Broy./Diag. 0.10E-01    1.5     0.00909463     -5417.7426846029  1.53E-02
   214 Broy./Diag. 0.10E-01    1.5     0.01908376     -5417.7613670773 -1.87E-02
   215 Broy./Diag. 0.10E-01    1.5     0.00316989     -5417.9596695391 -1.98E-01
   216 Broy./Diag. 0.10E-01    1.5     0.01274781     -5418.0729194666 -1.13E-01
   217 Broy./Diag. 0.10E-01    1.5     0.01190945     -5418.3915965464 -3.19E-01
   218 Broy./Diag. 0.10E-01    1.5     0.00996321     -5418.0701618231  3.21E-01
   219 Broy./Diag. 0.10E-01    1.5     0.01145718     -5418.1370966430 -6.69E-02
   220 Broy./Diag. 0.10E-01    1.5     0.01691224     -5418.0383734129  9.87E-02
   221 Broy./Diag. 0.10E-01    1.5     0.01228993     -5417.9747776545  6.36E-02
   222 Broy./Diag. 0.10E-01    1.5     0.01331648     -5418.0329428183 -5.82E-02
   223 Broy./Diag. 0.10E-01    1.5     0.00849534     -5417.9185315404  1.14E-01
   224 Broy./Diag. 0.10E-01    1.5     0.01735262     -5417.9441671428 -2.56E-02
   225 Broy./Diag. 0.10E-01    1.5     0.01849100     -5417.9738889613 -2.97E-02
   226 Broy./Diag. 0.10E-01    1.5     0.01252834     -5417.9179781570  5.59E-02
   227 Broy./Diag. 0.10E-01    1.5     0.08337469     -5417.8304329584  8.75E-02
   228 Broy./Diag. 0.10E-01    1.5     0.04706215     -5418.2480616323 -4.18E-01
   229 Broy./Diag. 0.10E-01    1.5     0.00620542     -5418.0556078110  1.92E-01
   230 Broy./Diag. 0.10E-01    1.5     0.04633232     -5418.0197546463  3.59E-02
   231 Broy./Diag. 0.10E-01    1.5     0.09305294     -5418.0549852112 -3.52E-02
   232 Broy./Diag. 0.10E-01    1.5     0.01508540     -5417.6079898731  4.47E-01
   233 Broy./Diag. 0.10E-01    1.5     0.01055709     -5417.8616414919 -2.54E-01
   234 Broy./Diag. 0.10E-01    1.5     0.05049353     -5417.6710886736  1.91E-01
   235 Broy./Diag. 0.10E-01    1.5     0.04948571     -5417.7517942726 -8.07E-02
   236 Broy./Diag. 0.10E-01    1.5     0.00984417     -5417.6724240736  7.94E-02
   237 Broy./Diag. 0.10E-01    1.5     0.01066304     -5417.8813696396 -2.09E-01
   238 Broy./Diag. 0.10E-01    1.5     0.03414388     -5417.9243426112 -4.30E-02
   239 Broy./Diag. 0.10E-01    1.5     0.02290104     -5417.8765510251  4.78E-02
   240 Broy./Diag. 0.10E-01    1.5     0.02540909     -5418.1885202598 -3.12E-01
   241 Broy./Diag. 0.10E-01    1.5     0.05372090     -5417.8388501179  3.50E-01
   242 Broy./Diag. 0.10E-01    1.5     0.06720137     -5418.1509675620 -3.12E-01
   243 Broy./Diag. 0.10E-01    1.5     0.08248853     -5418.3775250983 -2.27E-01
   244 Broy./Diag. 0.10E-01    1.5     0.00848335     -5417.9799690234  3.98E-01
   245 Broy./Diag. 0.10E-01    1.5     0.02662871     -5417.9694534629  1.05E-02
   246 Broy./Diag. 0.10E-01    1.5     0.01700949     -5418.2781767303 -3.09E-01
   247 Broy./Diag. 0.10E-01    1.5     0.03236536     -5418.3031393823 -2.50E-02
   248 Broy./Diag. 0.10E-01    1.5     0.02081282     -5418.2003288403  1.03E-01
   249 Broy./Diag. 0.10E-01    1.5     0.01872233     -5417.8690580513  3.31E-01
   250 Broy./Diag. 0.10E-01    1.5     0.00893684     -5417.8849316662 -1.59E-02
   251 Broy./Diag. 0.10E-01    1.5     0.02340296     -5417.7183895051  1.67E-01
   252 Broy./Diag. 0.10E-01    1.5     0.02066273     -5417.7365357498 -1.81E-02
   253 Broy./Diag. 0.10E-01    1.5     0.02184038     -5418.0877741519 -3.51E-01
   254 Broy./Diag. 0.10E-01    1.5     0.02375493     -5418.1996343912 -1.12E-01
   255 Broy./Diag. 0.10E-01    1.5     0.04117337     -5418.3211146622 -1.21E-01
   256 Broy./Diag. 0.10E-01    1.5     0.00488736     -5418.9988395490 -6.78E-01
   257 Broy./Diag. 0.10E-01    1.5     0.00793295     -5419.1367440355 -1.38E-01
   258 Broy./Diag. 0.10E-01    1.5     0.00960669     -5419.4335455098 -2.97E-01
   259 Broy./Diag. 0.10E-01    1.5     0.02052300     -5419.4503671375 -1.68E-02
   260 Broy./Diag. 0.10E-01    1.5     0.01228392     -5418.9460827765  5.04E-01
   261 Broy./Diag. 0.10E-01    1.5     0.01166646     -5418.6464308755  3.00E-01
   262 Broy./Diag. 0.10E-01    1.5     0.01152303     -5418.1304838330  5.16E-01
   263 Broy./Diag. 0.10E-01    1.5     0.01707230     -5418.1836410286 -5.32E-02
   264 Broy./Diag. 0.10E-01    1.5     0.02459786     -5418.0918420530  9.18E-02
   265 Broy./Diag. 0.10E-01    1.5     0.00632928     -5418.2867824119 -1.95E-01
   266 Broy./Diag. 0.10E-01    1.5     0.01631322     -5418.3655234596 -7.87E-02
   267 Broy./Diag. 0.10E-01    1.5     0.02327331     -5418.3523276678  1.32E-02
   268 Broy./Diag. 0.10E-01    1.5     0.03075751     -5418.0718723160  2.80E-01
   269 Broy./Diag. 0.10E-01    1.5     0.02868165     -5418.0843173616 -1.24E-02
   270 Broy./Diag. 0.10E-01    1.5     0.03755677     -5418.4578902672 -3.74E-01
   271 Broy./Diag. 0.10E-01    1.5     0.01184736     -5417.9464561455  5.11E-01
   272 Broy./Diag. 0.10E-01    1.5     0.01800296     -5417.9989987016 -5.25E-02
   273 Broy./Diag. 0.10E-01    1.5     0.01526247     -5418.0256377043 -2.66E-02
   274 Broy./Diag. 0.10E-01    1.5     0.04850941     -5417.8683422856  1.57E-01
   275 Broy./Diag. 0.10E-01    1.5     0.00441226     -5418.3836441692 -5.15E-01
   276 Broy./Diag. 0.10E-01    1.5     0.01050094     -5418.3320755874  5.16E-02
   277 Broy./Diag. 0.10E-01    1.5     0.00202488     -5418.2905460426  4.15E-02
   278 Broy./Diag. 0.10E-01    1.5     0.03224221     -5418.2586861235  3.19E-02
   279 Broy./Diag. 0.10E-01    1.5     0.05306827     -5418.2905978312 -3.19E-02
   280 Broy./Diag. 0.10E-01    1.5     0.07506934     -5418.2854322411  5.17E-03
   281 Broy./Diag. 0.10E-01    1.5     0.03271577     -5418.0792601819  2.06E-01
   282 Broy./Diag. 0.10E-01    1.5     0.01475375     -5418.0755388673  3.72E-03
   283 Broy./Diag. 0.10E-01    1.5     0.03374569     -5418.2845450468 -2.09E-01
   284 Broy./Diag. 0.10E-01    1.5     0.01480329     -5418.0904719527  1.94E-01
   285 Broy./Diag. 0.10E-01    1.5     0.07074142     -5418.0996434668 -9.17E-03
   286 Broy./Diag. 0.10E-01    1.5     0.01257105     -5418.4105074830 -3.11E-01
   287 Broy./Diag. 0.10E-01    1.5     0.00937069     -5418.6438967479 -2.33E-01
   288 Broy./Diag. 0.10E-01    1.5     0.00812069     -5418.6386819830  5.21E-03
   289 Broy./Diag. 0.10E-01    1.5     0.02663325     -5418.6107859383  2.79E-02
   290 Broy./Diag. 0.10E-01    1.5     0.01393430     -5418.2893549071  3.21E-01
   291 Broy./Diag. 0.10E-01    1.5     0.00965711     -5418.4422428438 -1.53E-01
   292 Broy./Diag. 0.10E-01    1.5     0.01294698     -5418.2845182161  1.58E-01
   293 Broy./Diag. 0.10E-01    1.5     0.01214301     -5418.0656241047  2.19E-01
   294 Broy./Diag. 0.10E-01    1.5     0.03411416     -5418.1624616427 -9.68E-02
   295 Broy./Diag. 0.10E-01    1.5     0.00652985     -5417.9603727066  2.02E-01
   296 Broy./Diag. 0.10E-01    1.5     0.02995715     -5417.9261377641  3.42E-02
   297 Broy./Diag. 0.10E-01    1.5     0.01349812     -5417.7144556650  2.12E-01
   298 Broy./Diag. 0.10E-01    1.5     0.08793455     -5417.7555517657 -4.11E-02
   299 Broy./Diag. 0.10E-01    1.5     0.00730154     -5418.0315176544 -2.76E-01
   300 Broy./Diag. 0.10E-01    1.5     0.00568770     -5418.1073028435 -7.58E-02
   301 Broy./Diag. 0.10E-01    1.5     0.01376731     -5418.1524591878 -4.52E-02
   302 Broy./Diag. 0.10E-01    1.5     0.00659856     -5418.0413314206  1.11E-01
   303 Broy./Diag. 0.10E-01    1.5     0.03645312     -5418.0754502799 -3.41E-02
   304 Broy./Diag. 0.10E-01    1.5     0.01197234     -5417.9501900766  1.25E-01
   305 Broy./Diag. 0.10E-01    1.5     0.01653363     -5417.8567064339  9.35E-02
   306 Broy./Diag. 0.10E-01    1.5     0.07981477     -5417.8802960125 -2.36E-02
   307 Broy./Diag. 0.10E-01    1.5     0.06950259     -5418.4226647633 -5.42E-01
   308 Broy./Diag. 0.10E-01    1.5     0.06222110     -5418.1081148727  3.15E-01
   309 Broy./Diag. 0.10E-01    1.5     0.04166039     -5418.7648468676 -6.57E-01
   310 Broy./Diag. 0.10E-01    1.5     0.01106511     -5418.5087766516  2.56E-01
   311 Broy./Diag. 0.10E-01    1.5     0.00528493     -5418.5156112235 -6.83E-03
   312 Broy./Diag. 0.10E-01    1.5     0.01929054     -5418.4483881063  6.72E-02
   313 Broy./Diag. 0.10E-01    1.5     0.01127618     -5418.1731113426  2.75E-01
   314 Broy./Diag. 0.10E-01    1.5     0.04077254     -5418.3298799287 -1.57E-01
   315 Broy./Diag. 0.10E-01    1.5     0.04367877     -5418.2077129345  1.22E-01
   316 Broy./Diag. 0.10E-01    1.5     0.01853405     -5418.4035960517 -1.96E-01
   317 Broy./Diag. 0.10E-01    1.5     0.01042382     -5418.1365266859  2.67E-01
   318 Broy./Diag. 0.10E-01    1.5     0.03837400     -5418.1674695272 -3.09E-02
   319 Broy./Diag. 0.10E-01    1.5     0.01314185     -5418.8717343627 -7.04E-01
   320 Broy./Diag. 0.10E-01    1.5     0.00466262     -5418.9480684692 -7.63E-02
   321 Broy./Diag. 0.10E-01    1.6     0.00679118     -5418.9860964341 -3.80E-02
   322 Broy./Diag. 0.10E-01    1.5     0.00533267     -5419.1096026012 -1.24E-01
   323 Broy./Diag. 0.10E-01    1.5     0.00480037     -5419.1089261954  6.76E-04
   324 Broy./Diag. 0.10E-01    1.5     0.03797114     -5419.2230440593 -1.14E-01
   325 Broy./Diag. 0.10E-01    1.5     0.03537508     -5419.2608378230 -3.78E-02
   326 Broy./Diag. 0.10E-01    1.5     0.07834320     -5418.8909176236  3.70E-01
   327 Broy./Diag. 0.10E-01    1.5     0.00477204     -5418.1450218535  7.46E-01
   328 Broy./Diag. 0.10E-01    1.5     0.02810893     -5418.0816680994  6.34E-02
   329 Broy./Diag. 0.10E-01    1.5     0.01597485     -5418.0530674159  2.86E-02
   330 Broy./Diag. 0.10E-01    1.5     0.02914602     -5417.9414695473  1.12E-01
   331 Broy./Diag. 0.10E-01    1.5     0.03348530     -5417.8704319129  7.10E-02
   332 Broy./Diag. 0.10E-01    1.6     0.00749438     -5418.3679640676 -4.98E-01
   333 Broy./Diag. 0.10E-01    1.5     0.03107558     -5418.6466112287 -2.79E-01
   334 Broy./Diag. 0.10E-01    1.5     0.03361082     -5418.6892697998 -4.27E-02
   335 Broy./Diag. 0.10E-01    1.5     0.06324442     -5418.3357226807  3.54E-01
   336 Broy./Diag. 0.10E-01    1.5     0.01974026     -5418.9091484478 -5.73E-01
   337 Broy./Diag. 0.10E-01    1.5     0.05658893     -5418.8536755726  5.55E-02
   338 Broy./Diag. 0.10E-01    1.5     0.03610851     -5419.1270523481 -2.73E-01
   339 Broy./Diag. 0.10E-01    1.5     0.04290665     -5418.4126509559  7.14E-01
   340 Broy./Diag. 0.10E-01    1.5     0.02195348     -5418.2905094119  1.22E-01
   341 Broy./Diag. 0.10E-01    1.5     0.04004536     -5418.3189630602 -2.85E-02
   342 Broy./Diag. 0.10E-01    1.5     0.00751562     -5418.4267913955 -1.08E-01
   343 Broy./Diag. 0.10E-01    1.5     0.04423937     -5418.3036876172  1.23E-01
   344 Broy./Diag. 0.10E-01    1.5     0.02563116     -5417.8677651370  4.36E-01
   345 Broy./Diag. 0.10E-01    1.5     0.08231479     -5418.2616651759 -3.94E-01
   346 Broy./Diag. 0.10E-01    1.5     0.02296921     -5418.1193918010  1.42E-01
   347 Broy./Diag. 0.10E-01    1.5     0.03122909     -5417.9776186679  1.42E-01
   348 Broy./Diag. 0.10E-01    1.5     0.01030929     -5418.0789113415 -1.01E-01
   349 Broy./Diag. 0.10E-01    1.5     0.04528912     -5418.2302298607 -1.51E-01
   350 Broy./Diag. 0.10E-01    1.5     0.05381661     -5418.9926214216 -7.62E-01
   351 Broy./Diag. 0.10E-01    1.5     0.05196741     -5418.8492906407  1.43E-01
   352 Broy./Diag. 0.10E-01    1.5     0.01746987     -5418.7686620168  8.06E-02
   353 Broy./Diag. 0.10E-01    1.5     0.05584447     -5419.0681575168 -2.99E-01
   354 Broy./Diag. 0.10E-01    1.5     0.02126951     -5419.4884082880 -4.20E-01
   355 Broy./Diag. 0.10E-01    1.5     0.04922706     -5419.6368699381 -1.48E-01
   356 Broy./Diag. 0.10E-01    1.5     0.07081211     -5419.2988761265  3.38E-01
   357 Broy./Diag. 0.10E-01    1.5     0.07567185     -5419.5480032744 -2.49E-01
   358 Broy./Diag. 0.10E-01    1.5     0.02499876     -5419.4904286317  5.76E-02
   359 Broy./Diag. 0.10E-01    1.5     0.02596546     -5419.8474478917 -3.57E-01
   360 Broy./Diag. 0.10E-01    1.5     0.05021045     -5420.0166687852 -1.69E-01
   361 Broy./Diag. 0.10E-01    1.5     0.06957270     -5420.0340340080 -1.74E-02
   362 Broy./Diag. 0.10E-01    1.5     0.07526604     -5420.9182729800 -8.84E-01
   363 Broy./Diag. 0.10E-01    1.5     0.03700032     -5420.6002158611  3.18E-01
   364 Broy./Diag. 0.10E-01    1.5     0.03943998     -5420.6675227339 -6.73E-02
   365 Broy./Diag. 0.10E-01    1.5     0.00336402     -5420.5952270414  7.23E-02
   366 Broy./Diag. 0.10E-01    1.5     0.05631449     -5420.7734353051 -1.78E-01
   367 Broy./Diag. 0.10E-01    1.5     0.02138588     -5419.8048714747  9.69E-01
   368 Broy./Diag. 0.10E-01    1.5     0.01965876     -5419.3213914799  4.83E-01
   369 Broy./Diag. 0.10E-01    1.5     0.02497956     -5419.9407190005 -6.19E-01
