 DBCSR| CPU Multiplication driver                                           XSMM (U)
 DBCSR| Multrec recursion limit                                              512 (U)
 DBCSR| Multiplication stack size                                           1000 (D)
 DBCSR| Maximum elements for images                                    UNLIMITED (U)
 DBCSR| Multiplicative factor virtual images                                   1 (U)
 DBCSR| Use multiplication densification                                       T (D)
 DBCSR| Multiplication size stacks                                             3 (U)
 DBCSR| Use memory pool for CPU allocation                                     F (U)
 DBCSR| Number of 3D layers                                               SINGLE (U)
 DBCSR| Use MPI memory allocation                                              F (U)
 DBCSR| Use RMA algorithm                                                      F (U)
 DBCSR| Use Communication thread                                               T (U)
 DBCSR| Communication thread load                                             87 (D)
 DBCSR| MPI: My process id                                                     0
 DBCSR| MPI: Number of processes                                             128
 DBCSR| OMP: Current number of threads                                         1
 DBCSR| OMP: Max number of threads                                             1
 DBCSR| Split modifier for TAS multiplication algorithm                  1.0E+00 (U)


  **** **** ******  **  PROGRAM STARTED AT               2023-02-06 16:36:18.320
 ***** ** ***  *** **   PROGRAM STARTED ON                             nid006260
 **    ****   ******    PROGRAM STARTED BY                                cahart
 ***** **    ** ** **   PROGRAM PROCESS ID                                101915
  **** **  *******  **  PROGRAM STARTED IN /mnt/lustre/a2fs-work2/work/e05/e05/c
                                           ahart/postdoc/masters/ni/archer2/bulk
                                           /optimise/multiplicity-65-magnetizati
                                           on/search/1.0E-3_1.0E-1

 CP2K| version string:                                       CP2K version 2023.1
 CP2K| source code revision number:                                  git:b888bd8
 CP2K| cp2kflags: omp libint fftw3 libxc elpa parallel scalapack xsmm plumed2 mk
 CP2K|            l
 CP2K| is freely available from                            https://www.cp2k.org/
 CP2K| Program compiled at                          Tue Jan 24 12:43:13 GMT 2023
 CP2K| Program compiled on                                                  ln03
 CP2K| Program compiled for                                              ARCHER2
 CP2K| Data directory path    /mnt/lustre/a2fs-work1/work/y07/shared/apps/core/c
 CP2K| Input file name                                                  cp2k.inp

 GLOBAL| Force Environment number                                              1
 GLOBAL| Basis set file name                                        BASIS_MOLOPT
 GLOBAL| Potential file name                                      GTH_POTENTIALS
 GLOBAL| MM Potential file name                                     MM_POTENTIAL
 GLOBAL| Coordinate file name                                      __STD_INPUT__
 GLOBAL| Method name                                                        CP2K
 GLOBAL| Project name                                                    Ni_bulk
 GLOBAL| Run type                                                         ENERGY
 GLOBAL| FFT library                                                       FFTW3
 GLOBAL| Diagonalization library                                            ELPA
 GLOBAL| DGEMM library                                                      BLAS
 GLOBAL| Minimum number of eigenvectors for ELPA usage                        16
 GLOBAL| Orthonormality check for eigenvectors                          DISABLED
 GLOBAL| Matrix multiplication library                                 ScaLAPACK
 GLOBAL| All-to-all communication in single precision                          F
 GLOBAL| FFTs using library dependent lengths                                  F
 GLOBAL| Grid backend                                                       AUTO
 GLOBAL| Global print level                                               MEDIUM
 GLOBAL| MPI I/O enabled                                                       T
 GLOBAL| Total number of message passing processes                           128
 GLOBAL| Number of threads for this process                                    1
 GLOBAL| This output is from process                                           0
 GLOBAL| Stack size for threads created by OpenMP (OMP_STACKSIZE)        default
 GLOBAL| CPU model name                          AMD EPYC 7742 64-Core Processor
 GLOBAL| CPUID                                                              1002

 MEMORY| system memory details [Kb]
 MEMORY|                        rank 0           min           max       average
 MEMORY| MemTotal            263528088     263528088     263528088     263528088
 MEMORY| MemFree             242354780     242354780     242354788     242354783
 MEMORY| Buffers                 37064         37064         37064         37064
 MEMORY| Cached                 708112        708112        708112        708112
 MEMORY| Slab                  1513848       1513840       1513848       1513844
 MEMORY| SReclaimable            85656         85656         85656         85656
 MEMORY| MemLikelyFree       243185612     243185612     243185620     243185615


 *** Fundamental physical constants (SI units) ***

 *** Literature: B. J. Mohr and B. N. Taylor,
 ***             CODATA recommended values of the fundamental physical
 ***             constants: 2006, Web Version 5.1
 ***             http://physics.nist.gov/constants

 Speed of light in vacuum [m/s]                             2.99792458000000E+08
 Magnetic constant or permeability of vacuum [N/A**2]       1.25663706143592E-06
 Electric constant or permittivity of vacuum [F/m]          8.85418781762039E-12
 Planck constant (h) [J*s]                                  6.62606896000000E-34
 Planck constant (h-bar) [J*s]                              1.05457162825177E-34
 Elementary charge [C]                                      1.60217648700000E-19
 Electron mass [kg]                                         9.10938215000000E-31
 Electron g factor [ ]                                     -2.00231930436220E+00
 Proton mass [kg]                                           1.67262163700000E-27
 Fine-structure constant                                    7.29735253760000E-03
 Rydberg constant [1/m]                                     1.09737315685270E+07
 Avogadro constant [1/mol]                                  6.02214179000000E+23
 Boltzmann constant [J/K]                                   1.38065040000000E-23
 Atomic mass unit [kg]                                      1.66053878200000E-27
 Bohr radius [m]                                            5.29177208590000E-11

 *** Conversion factors ***

 [u] -> [a.u.]                                              1.82288848426455E+03
 [Angstrom] -> [Bohr] = [a.u.]                              1.88972613288564E+00
 [a.u.] = [Bohr] -> [Angstrom]                              5.29177208590000E-01
 [a.u.] -> [s]                                              2.41888432650478E-17
 [a.u.] -> [fs]                                             2.41888432650478E-02
 [a.u.] -> [J]                                              4.35974393937059E-18
 [a.u.] -> [N]                                              8.23872205491840E-08
 [a.u.] -> [K]                                              3.15774647902944E+05
 [a.u.] -> [kJ/mol]                                         2.62549961709828E+03
 [a.u.] -> [kcal/mol]                                       6.27509468713739E+02
 [a.u.] -> [Pa]                                             2.94210107994716E+13
 [a.u.] -> [bar]                                            2.94210107994716E+08
 [a.u.] -> [atm]                                            2.90362800883016E+08
 [a.u.] -> [eV]                                             2.72113838565563E+01
 [a.u.] -> [Hz]                                             6.57968392072181E+15
 [a.u.] -> [1/cm] (wave numbers)                            2.19474631370540E+05
 [a.u./Bohr**2] -> [1/cm]                                   5.14048714338585E+03
 

 CELL_TOP| Volume [angstrom^3]:                                       344.707437
 CELL_TOP| Vector a [angstrom     7.012     0.000     0.000   |a| =     7.011596
 CELL_TOP| Vector b [angstrom     0.000     7.012     0.000   |b| =     7.011596
 CELL_TOP| Vector c [angstrom     0.000     0.000     7.012   |c| =     7.011596
 CELL_TOP| Angle (b,c), alpha [degree]:                                90.000000
 CELL_TOP| Angle (a,c), beta  [degree]:                                90.000000
 CELL_TOP| Angle (a,b), gamma [degree]:                                90.000000
 CELL_TOP| Numerically orthorhombic:                                         YES
 CELL_TOP| Periodicity                                                       XYZ

 CELL_UC| Volume [angstrom^3]:                                         43.088430
 CELL_UC| Vector a [angstrom]     3.506     0.000     0.000   |a| =     3.505798
 CELL_UC| Vector b [angstrom]     0.000     3.506     0.000   |b| =     3.505798
 CELL_UC| Vector c [angstrom]     0.000     0.000     3.506   |c| =     3.505798
 CELL_UC| Angle (b,c), alpha [degree]:                                 90.000000
 CELL_UC| Angle (a,c), beta  [degree]:                                 90.000000
 CELL_UC| Angle (a,b), gamma [degree]:                                 90.000000
 CELL_UC| Numerically orthorhombic:                                          YES
 CELL_UC| Periodicity                                                        XYZ

 GENERATE|  Preliminary Number of Bonds generated:                             0
 GENERATE|  Achieved consistency in connectivity generation.

 CELL| Volume [angstrom^3]:                                           344.707437
 CELL| Vector a [angstrom]:       7.012     0.000     0.000   |a| =     7.011596
 CELL| Vector b [angstrom]:       0.000     7.012     0.000   |b| =     7.011596
 CELL| Vector c [angstrom]:       0.000     0.000     7.012   |c| =     7.011596
 CELL| Angle (b,c), alpha [degree]:                                    90.000000
 CELL| Angle (a,c), beta  [degree]:                                    90.000000
 CELL| Angle (a,b), gamma [degree]:                                    90.000000
 CELL| Numerically orthorhombic:                                             YES
 CELL| Periodicity                                                           XYZ

 CELL_REF| Volume [angstrom^3]:                                       344.707437
 CELL_REF| Vector a [angstrom     7.012     0.000     0.000   |a| =     7.011596
 CELL_REF| Vector b [angstrom     0.000     7.012     0.000   |b| =     7.011596
 CELL_REF| Vector c [angstrom     0.000     0.000     7.012   |c| =     7.011596
 CELL_REF| Angle (b,c), alpha [degree]:                                90.000000
 CELL_REF| Angle (a,c), beta  [degree]:                                90.000000
 CELL_REF| Angle (a,b), gamma [degree]:                                90.000000
 CELL_REF| Numerically orthorhombic:                                         YES
 CELL_REF| Periodicity                                                       XYZ

 *******************************************************************************
 *******************************************************************************
 **                                                                           **
 **     #####                         ##              ##                      **
 **    ##   ##            ##          ##              ##                      **
 **   ##     ##                       ##            ######                    **
 **   ##     ##  ##   ##  ##   #####  ##  ##   ####   ##    #####    #####    **
 **   ##     ##  ##   ##  ##  ##      ## ##   ##      ##   ##   ##  ##   ##   **
 **   ##  ## ##  ##   ##  ##  ##      ####     ###    ##   ######   ######    **
 **    ##  ###   ##   ##  ##  ##      ## ##      ##   ##   ##       ##        **
 **     #######   #####   ##   #####  ##  ##  ####    ##    #####   ##        **
 **           ##                                                    ##        **
 **                                                                           **
 **                                                ... make the atoms dance   **
 **                                                                           **
 **            Copyright (C) by CP2K developers group (2000-2022)             **
 **                      J. Chem. Phys. 152, 194103 (2020)                    **
 **                                                                           **
 *******************************************************************************

 *** WARNING in qs_environment.F:1470 :: More ADDED_MOs requested for beta ***
 *** spin than available.                                                  ***


 *** WARNING in qs_environment.F:1486 :: More added MOs requested than     ***
 *** available. The full set of unoccupied MOs will be used. Use           ***
 *** 'ADDED_MOS -1' to always use all available MOs and to get rid of this ***
 *** warning.                                                              ***


 DFT| Spin unrestricted (spin-polarized) Kohn-Sham calculation               UKS
 DFT| Multiplicity                                                            65
 DFT| Number of spin states                                                    2
 DFT| Charge                                                                   0
 DFT| Self-interaction correction (SIC)                                       NO
 DFT| Cutoffs: density                                              1.000000E-10
 DFT|          gradient                                             1.000000E-10
 DFT|          tau                                                  1.000000E-10
 DFT|          cutoff_smoothing_range                               0.000000E+00
 DFT| XC density smoothing                                                  NONE
 DFT| XC derivatives                                                          PW

 FUNCTIONAL| PBE:
 FUNCTIONAL| J.P.Perdew, K.Burke, M.Ernzerhof, Phys. Rev. Letter, vol. 77, n 18,
 FUNCTIONAL|  pp. 3865-3868, (1996){spin polarized}                             


 QS| Method:                                                                 GPW
 QS| Density plane wave grid type                        NON-SPHERICAL FULLSPACE
 QS| Number of grid levels:                                                    5
 QS| Density cutoff [a.u.]:                                                300.0
 QS| Multi grid cutoff [a.u.]: 1) grid level                               300.0
 QS|                           2) grid level                               100.0
 QS|                           3) grid level                                33.3
 QS|                           4) grid level                                11.1
 QS|                           5) grid level                                 3.7
 QS| Grid level progression factor:                                          3.0
 QS| Relative density cutoff [a.u.]:                                        30.0
 QS| Interaction thresholds: eps_pgf_orb:                                1.0E-06
 QS|                         eps_filter_matrix:                          0.0E+00
 QS|                         eps_core_charge:                            1.0E-14
 QS|                         eps_rho_gspace:                             1.0E-12
 QS|                         eps_rho_rspace:                             1.0E-12
 QS|                         eps_gvg_rspace:                             1.0E-06
 QS|                         eps_ppl:                                    1.0E-02
 QS|                         eps_ppnl:                                   1.0E-08


 ATOMIC KIND INFORMATION

  1. Atomic kind: Ni                                    Number of atoms:      32

     Orbital Basis Set                                        DZVP-MOLOPT-SR-GTH

       Number of orbital shell sets:                                           1
       Number of orbital shells:                                               8
       Number of primitive Cartesian functions:                                6
       Number of Cartesian basis functions:                                   31
       Number of spherical basis functions:                                   26
       Norm type:                                                              2

       Normalised Cartesian orbitals:

                        Set   Shell   Orbital            Exponent    Coefficient

                          1       1    2s               10.077428      -0.684558
                                                         5.847736      -0.844524
                                                         2.494033       1.088856
                                                         0.988355       0.395503
                                                         0.344978       0.010224
                                                         0.099466      -0.003250

                          1       2    3s               10.077428       0.096747
                                                         5.847736       0.162504
                                                         2.494033      -0.297192
                                                         0.988355      -0.319752
                                                         0.344978       0.088318
                                                         0.099466       0.118587

                          1       3    4s               10.077428       0.036437
                                                         5.847736      -0.381480
                                                         2.494033       0.003759
                                                         0.988355      -1.048256
                                                         0.344978       0.855825
                                                         0.099466      -0.176350

                          1       4    3px              10.077428      -3.133913
                                                         5.847736       3.027656
                                                         2.494033       2.353227
                                                         0.988355       0.554184
                                                         0.344978       0.019462
                                                         0.099466      -0.000291
                          1       4    3py              10.077428      -3.133913
                                                         5.847736       3.027656
                                                         2.494033       2.353227
                                                         0.988355       0.554184
                                                         0.344978       0.019462
                                                         0.099466      -0.000291
                          1       4    3pz              10.077428      -3.133913
                                                         5.847736       3.027656
                                                         2.494033       2.353227
                                                         0.988355       0.554184
                                                         0.344978       0.019462
                                                         0.099466      -0.000291

                          1       5    4px              10.077428      -0.112729
                                                         5.847736      -0.114008
                                                         2.494033      -0.347303
                                                         0.988355      -0.110323
                                                         0.344978       0.154096
                                                         0.099466       0.058386
                          1       5    4py              10.077428      -0.112729
                                                         5.847736      -0.114008
                                                         2.494033      -0.347303
                                                         0.988355      -0.110323
                                                         0.344978       0.154096
                                                         0.099466       0.058386
                          1       5    4pz              10.077428      -0.112729
                                                         5.847736      -0.114008
                                                         2.494033      -0.347303
                                                         0.988355      -0.110323
                                                         0.344978       0.154096
                                                         0.099466       0.058386

                          1       6    4dx2             10.077428       8.232726
                                                         5.847736       9.105758
                                                         2.494033       2.849835
                                                         0.988355       0.554319
                                                         0.344978       0.067245
                                                         0.099466       0.001940
                          1       6    4dxy             10.077428      14.259500
                                                         5.847736      15.771636
                                                         2.494033       4.936060
                                                         0.988355       0.960109
                                                         0.344978       0.116472
                                                         0.099466       0.003360
                          1       6    4dxz             10.077428      14.259500
                                                         5.847736      15.771636
                                                         2.494033       4.936060
                                                         0.988355       0.960109
                                                         0.344978       0.116472
                                                         0.099466       0.003360
                          1       6    4dy2             10.077428       8.232726
                                                         5.847736       9.105758
                                                         2.494033       2.849835
                                                         0.988355       0.554319
                                                         0.344978       0.067245
                                                         0.099466       0.001940
                          1       6    4dyz             10.077428      14.259500
                                                         5.847736      15.771636
                                                         2.494033       4.936060
                                                         0.988355       0.960109
                                                         0.344978       0.116472
                                                         0.099466       0.003360
                          1       6    4dz2             10.077428       8.232726
                                                         5.847736       9.105758
                                                         2.494033       2.849835
                                                         0.988355       0.554319
                                                         0.344978       0.067245
                                                         0.099466       0.001940

                          1       7    5dx2             10.077428      -2.715373
                                                         5.847736      -4.020640
                                                         2.494033      -1.397569
                                                         0.988355      -0.076143
                                                         0.344978       0.033435
                                                         0.099466       0.026032
                          1       7    5dxy             10.077428      -4.703164
                                                         5.847736      -6.963952
                                                         2.494033      -2.420661
                                                         0.988355      -0.131883
                                                         0.344978       0.057911
                                                         0.099466       0.045088
                          1       7    5dxz             10.077428      -4.703164
                                                         5.847736      -6.963952
                                                         2.494033      -2.420661
                                                         0.988355      -0.131883
                                                         0.344978       0.057911
                                                         0.099466       0.045088
                          1       7    5dy2             10.077428      -2.715373
                                                         5.847736      -4.020640
                                                         2.494033      -1.397569
                                                         0.988355      -0.076143
                                                         0.344978       0.033435
                                                         0.099466       0.026032
                          1       7    5dyz             10.077428      -4.703164
                                                         5.847736      -6.963952
                                                         2.494033      -2.420661
                                                         0.988355      -0.131883
                                                         0.344978       0.057911
                                                         0.099466       0.045088
                          1       7    5dz2             10.077428      -2.715373
                                                         5.847736      -4.020640
                                                         2.494033      -1.397569
                                                         0.988355      -0.076143
                                                         0.344978       0.033435
                                                         0.099466       0.026032

                          1       8    5fx3             10.077428      -0.467694
                                                         5.847736       0.618100
                                                         2.494033       0.066069
                                                         0.988355       0.262898
                                                         0.344978       0.004720
                                                         0.099466       0.007748
                          1       8    5fx2y            10.077428      -1.045795
                                                         5.847736       1.382114
                                                         2.494033       0.147734
                                                         0.988355       0.587859
                                                         0.344978       0.010555
                                                         0.099466       0.017325
                          1       8    5fx2z            10.077428      -1.045795
                                                         5.847736       1.382114
                                                         2.494033       0.147734
                                                         0.988355       0.587859
                                                         0.344978       0.010555
                                                         0.099466       0.017325
                          1       8    5fxy2            10.077428      -1.045795
                                                         5.847736       1.382114
                                                         2.494033       0.147734
                                                         0.988355       0.587859
                                                         0.344978       0.010555
                                                         0.099466       0.017325
                          1       8    5fxyz            10.077428      -1.811371
                                                         5.847736       2.393892
                                                         2.494033       0.255883
                                                         0.988355       1.018201
                                                         0.344978       0.018282
                                                         0.099466       0.030008
                          1       8    5fxz2            10.077428      -1.045795
                                                         5.847736       1.382114
                                                         2.494033       0.147734
                                                         0.988355       0.587859
                                                         0.344978       0.010555
                                                         0.099466       0.017325
                          1       8    5fy3             10.077428      -0.467694
                                                         5.847736       0.618100
                                                         2.494033       0.066069
                                                         0.988355       0.262898
                                                         0.344978       0.004720
                                                         0.099466       0.007748
                          1       8    5fy2z            10.077428      -1.045795
                                                         5.847736       1.382114
                                                         2.494033       0.147734
                                                         0.988355       0.587859
                                                         0.344978       0.010555
                                                         0.099466       0.017325
                          1       8    5fyz2            10.077428      -1.045795
                                                         5.847736       1.382114
                                                         2.494033       0.147734
                                                         0.988355       0.587859
                                                         0.344978       0.010555
                                                         0.099466       0.017325
                          1       8    5fz3             10.077428      -0.467694
                                                         5.847736       0.618100
                                                         2.494033       0.066069
                                                         0.988355       0.262898
                                                         0.344978       0.004720
                                                         0.099466       0.007748

       Atomic covalent radius [Angstrom]:                                  1.150

       Atomic van der Waals radius [Angstrom]:                             1.630

     GTH Potential information for                                   GTH-PBE-q18

       Description:                       Goedecker-Teter-Hutter pseudopotential
                                           Goedecker et al., PRB 54, 1703 (1996)
                                          Hartwigsen et al., PRB 58, 3641 (1998)
                                                      Krack, TCA 114, 145 (2005)

       Gaussian exponent of the core charge distribution:               4.081633
       Electronic configuration (s p d ...):                           4   6   8

       Parameters of the local part of the GTH pseudopotential:

                          rloc        C1          C2          C3          C4
                        0.350000    2.102166    0.648484

       Parameters of the non-local part of the GTH pseudopotential:

                   l      r(l)      h(i,j,l)

                   0    0.261295    0.622658    9.970227
                                    9.970227  -12.871507
                   1    0.224253  -11.142708   12.429566
                                   12.429566  -14.706861
                   2    0.215348  -12.628146


 MOLECULE KIND INFORMATION


 All atoms are their own molecule, skipping detailed information


 TOTAL NUMBERS AND MAXIMUM NUMBERS

  Total number of            - Atomic kinds:                                   1
                             - Atoms:                                         32
                             - Shell sets:                                    32
                             - Shells:                                       256
                             - Primitive Cartesian functions:                192
                             - Cartesian basis functions:                    992
                             - Spherical basis functions:                    832

  Maximum angular momentum of- Orbital basis functions:                        3
                             - Local part of the GTH pseudopotential:          2
                             - Non-local part of the GTH pseudopotential:      3


 MODULE QUICKSTEP: ATOMIC COORDINATES IN ANGSTROM

   Atom Kind Element         X             Y             Z       Z(eff)     Mass
      1    1 Ni   28      0.000000      0.000000      0.000000  18.0000  58.6934
      2    1 Ni   28      0.000000      1.752900      1.752900  18.0000  58.6934
      3    1 Ni   28      1.752900      0.000000      1.752900  18.0000  58.6934
      4    1 Ni   28      1.752900      1.752900      0.000000  18.0000  58.6934
      5    1 Ni   28      3.505798      0.000000      0.000000  18.0000  58.6934
      6    1 Ni   28      3.505798      1.752900      1.752900  18.0000  58.6934
      7    1 Ni   28      5.258698      0.000000      1.752900  18.0000  58.6934
      8    1 Ni   28      5.258698      1.752900      0.000000  18.0000  58.6934
      9    1 Ni   28      0.000000      3.505798      0.000000  18.0000  58.6934
     10    1 Ni   28      0.000000      5.258698      1.752900  18.0000  58.6934
     11    1 Ni   28      1.752900      3.505798      1.752900  18.0000  58.6934
     12    1 Ni   28      1.752900      5.258698      0.000000  18.0000  58.6934
     13    1 Ni   28      3.505798      3.505798      0.000000  18.0000  58.6934
     14    1 Ni   28      3.505798      5.258698      1.752900  18.0000  58.6934
     15    1 Ni   28      5.258698      3.505798      1.752900  18.0000  58.6934
     16    1 Ni   28      5.258698      5.258698      0.000000  18.0000  58.6934
     17    1 Ni   28      0.000000      0.000000      3.505798  18.0000  58.6934
     18    1 Ni   28      0.000000      1.752900      5.258698  18.0000  58.6934
     19    1 Ni   28      1.752900      0.000000      5.258698  18.0000  58.6934
     20    1 Ni   28      1.752900      1.752900      3.505798  18.0000  58.6934
     21    1 Ni   28      3.505798      0.000000      3.505798  18.0000  58.6934
     22    1 Ni   28      3.505798      1.752900      5.258698  18.0000  58.6934
     23    1 Ni   28      5.258698      0.000000      5.258698  18.0000  58.6934
     24    1 Ni   28      5.258698      1.752900      3.505798  18.0000  58.6934
     25    1 Ni   28      0.000000      3.505798      3.505798  18.0000  58.6934
     26    1 Ni   28      0.000000      5.258698      5.258698  18.0000  58.6934
     27    1 Ni   28      1.752900      3.505798      5.258698  18.0000  58.6934
     28    1 Ni   28      1.752900      5.258698      3.505798  18.0000  58.6934
     29    1 Ni   28      3.505798      3.505798      3.505798  18.0000  58.6934
     30    1 Ni   28      3.505798      5.258698      5.258698  18.0000  58.6934
     31    1 Ni   28      5.258698      3.505798      5.258698  18.0000  58.6934
     32    1 Ni   28      5.258698      5.258698      3.505798  18.0000  58.6934



 SCF PARAMETERS         Density guess:                                    ATOMIC
                        --------------------------------------------------------
                        max_scf:                                             500
                        max_scf_history:                                       0
                        max_diis:                                             10
                        --------------------------------------------------------
                        eps_scf:                                        1.00E-08
                        eps_scf_history:                                0.00E+00
                        eps_diis:                                       1.00E-01
                        eps_eigval:                                     1.00E-05
                        --------------------------------------------------------
                        level_shift [a.u.]:                             0.000000
                        added MOs                                       512  576
                        --------------------------------------------------------
                        Mixing method:                            BROYDEN_MIXING
                                                charge density mixing in g-space
                        --------------------------------------------------------
                        Smear method:                                FERMI_DIRAC
                        Electronic temperature [K]:                        500.0
                        Electronic temperature [a.u.]:                  1.58E-03
                        Accuracy threshold:                             1.00E-10
                        --------------------------------------------------------
                        No outer SCF

 PW_GRID| Information for grid number                                          1
 PW_GRID| Grid distributed over                                   128 processors
 PW_GRID| Real space group dimensions                                     8   16
 PW_GRID| the grid is blocked:                                               YES
 PW_GRID| Cutoff [a.u.]                                                    300.0
 PW_GRID| spherical cutoff:                                                   NO
 PW_GRID|   Bounds   1            -54      53                Points:         108
 PW_GRID|   Bounds   2            -54      53                Points:         108
 PW_GRID|   Bounds   3            -54      53                Points:         108
 PW_GRID| Volume element (a.u.^3)  0.1847E-02     Volume (a.u.^3)      2326.2011
 PW_GRID| Grid span                                                    FULLSPACE
 PW_GRID|   Distribution                         Average         Max         Min
 PW_GRID|   G-Vectors                             9841.5       10584        8424
 PW_GRID|   G-Rays                                  91.1          98          78
 PW_GRID|   Real Space Points                     9841.5       10584        8424

 PW_GRID| Information for grid number                                          2
 PW_GRID| Number of the reference grid                                         1
 PW_GRID| Grid distributed over                                   128 processors
 PW_GRID| Real space group dimensions                                     8   16
 PW_GRID| the grid is blocked:                                                NO
 PW_GRID| Cutoff [a.u.]                                                    100.0
 PW_GRID| spherical cutoff:                                                   NO
 PW_GRID|   Bounds   1            -30      29                Points:          60
 PW_GRID|   Bounds   2            -30      29                Points:          60
 PW_GRID|   Bounds   3            -30      29                Points:          60
 PW_GRID| Volume element (a.u.^3)  0.1077E-01     Volume (a.u.^3)      2326.2011
 PW_GRID| Grid span                                                    FULLSPACE
 PW_GRID|   Distribution                         Average         Max         Min
 PW_GRID|   G-Vectors                             1687.5        5880           0
 PW_GRID|   G-Rays                                  28.1          98           0
 PW_GRID|   Real Space Points                     1687.5        1920        1260

 PW_GRID| Information for grid number                                          3
 PW_GRID| Number of the reference grid                                         1
 PW_GRID| Grid distributed over                                   128 processors
 PW_GRID| Real space group dimensions                                     8   16
 PW_GRID| the grid is blocked:                                                NO
 PW_GRID| Cutoff [a.u.]                                                     33.3
 PW_GRID| spherical cutoff:                                                   NO
 PW_GRID|   Bounds   1            -18      17                Points:          36
 PW_GRID|   Bounds   2            -18      17                Points:          36
 PW_GRID|   Bounds   3            -18      17                Points:          36
 PW_GRID| Volume element (a.u.^3)  0.4986E-01     Volume (a.u.^3)      2326.2011
 PW_GRID| Grid span                                                    FULLSPACE
 PW_GRID|   Distribution                         Average         Max         Min
 PW_GRID|   G-Vectors                              364.5        3528           0
 PW_GRID|   G-Rays                                  10.1          98           0
 PW_GRID|   Real Space Points                      364.5         540         288

 PW_GRID| Information for grid number                                          4
 PW_GRID| Number of the reference grid                                         1
 PW_GRID| Grid distributed over                                   128 processors
 PW_GRID| Real space group dimensions                                     8   16
 PW_GRID| the grid is blocked:                                                NO
 PW_GRID| Cutoff [a.u.]                                                     11.1
 PW_GRID| spherical cutoff:                                                   NO
 PW_GRID|   Bounds   1            -10       9                Points:          20
 PW_GRID|   Bounds   2            -10       9                Points:          20
 PW_GRID|   Bounds   3            -10       9                Points:          20
 PW_GRID| Volume element (a.u.^3)  0.2908         Volume (a.u.^3)      2326.2011
 PW_GRID| Grid span                                                    FULLSPACE
 PW_GRID|   Distribution                         Average         Max         Min
 PW_GRID|   G-Vectors                               62.5        1400           0
 PW_GRID|   G-Rays                                   3.1          70           0
 PW_GRID|   Real Space Points                       62.5         120          40

 PW_GRID| Information for grid number                                          5
 PW_GRID| Number of the reference grid                                         1
 PW_GRID| Grid distributed over                                   128 processors
 PW_GRID| Real space group dimensions                                     8   16
 PW_GRID| the grid is blocked:                                                NO
 PW_GRID| Cutoff [a.u.]                                                      3.7
 PW_GRID| spherical cutoff:                                                   NO
 PW_GRID|   Bounds   1             -6       5                Points:          12
 PW_GRID|   Bounds   2             -6       5                Points:          12
 PW_GRID|   Bounds   3             -6       5                Points:          12
 PW_GRID| Volume element (a.u.^3)   1.346         Volume (a.u.^3)      2326.2011
 PW_GRID| Grid span                                                    FULLSPACE
 PW_GRID|   Distribution                         Average         Max         Min
 PW_GRID|   G-Vectors                               13.5         432           0
 PW_GRID|   G-Rays                                   1.1          36           0
 PW_GRID|   Real Space Points                       13.5          24           0

 POISSON| Solver                                                        PERIODIC
 POISSON| Periodicity                                                        XYZ

 RS_GRID| Information for grid number                                          1
 RS_GRID|   Bounds   1            -54      53                Points:         108
 RS_GRID|   Bounds   2            -54      53                Points:         108
 RS_GRID|   Bounds   3            -54      53                Points:         108
 RS_GRID| Real space distribution over                                  8 groups
 RS_GRID| Real space distribution along direction                              2
 RS_GRID| Border size                                                         28
 RS_GRID| Real space distribution over                                 16 groups
 RS_GRID| Real space distribution along direction                              3
 RS_GRID| Border size                                                         28
 RS_GRID|   Distribution                         Average         Max         Min
 RS_GRID|   Planes                                  69.5          70          69
 RS_GRID|   Distribution                         Average         Max         Min
 RS_GRID|   Planes                                  62.8          63          62

 RS_GRID| Information for grid number                                          2
 RS_GRID|   Bounds   1            -30      29                Points:          60
 RS_GRID|   Bounds   2            -30      29                Points:          60
 RS_GRID|   Bounds   3            -30      29                Points:          60
 RS_GRID| Real space fully replicated
 RS_GRID| Group size                                                           1

 RS_GRID| Information for grid number                                          3
 RS_GRID|   Bounds   1            -18      17                Points:          36
 RS_GRID|   Bounds   2            -18      17                Points:          36
 RS_GRID|   Bounds   3            -18      17                Points:          36
 RS_GRID| Real space fully replicated
 RS_GRID| Group size                                                           1

 RS_GRID| Information for grid number                                          4
 RS_GRID|   Bounds   1            -10       9                Points:          20
 RS_GRID|   Bounds   2            -10       9                Points:          20
 RS_GRID|   Bounds   3            -10       9                Points:          20
 RS_GRID| Real space fully replicated
 RS_GRID| Group size                                                           1

 RS_GRID| Information for grid number                                          5
 RS_GRID|   Bounds   1             -6       5                Points:          12
 RS_GRID|   Bounds   2             -6       5                Points:          12
 RS_GRID|   Bounds   3             -6       5                Points:          12
 RS_GRID| Real space fully replicated
 RS_GRID| Group size                                                           1

 Spin 1

 Number of electrons:                                                        320
 Number of occupied orbitals:                                                320
 Number of molecular orbitals:                                               832

 Spin 2

 Number of electrons:                                                        256
 Number of occupied orbitals:                                                256
 Number of molecular orbitals:                                               832

 Number of orbital functions:                                                832
 Number of independent orbital functions:                                    832

 Extrapolation method: initial_guess

 Atomic guess: The first density matrix is obtained in terms of atomic orbitals
               and electronic configurations assigned to each atomic kind

 Guess for atomic kind: Ni

 Electronic structure
    Total number of core electrons                                         10.00
    Total number of valence electrons                                      18.00
    Total number of electrons                                              28.00
    Multiplicity                                                         triplet
    Alpha Electrons
    S   [  1.00  1.00] 1.00  1.00
    P   [  3.00] 3.00
    D      5.00
    Beta Electrons
    S   [  1.00  1.00] 1.00  1.00
    P   [  3.00] 3.00
    D      3.00


 *******************************************************************************
                  Iteration          Convergence                     Energy [au]
 *******************************************************************************
                          1         1.61955                    -167.102733612646
                          2         17.9576                    -156.964728082342
                          3         2.81889                    -168.347679739779
                          4        0.300879                    -168.639029543130
                          5        0.133614                    -168.643718125190
                          6        0.642384E-01                -168.645928334381
                          7        0.411618E-01                -168.646613747745
                          8        0.978516E-02                -168.646711132537
                          9        0.508781E-01                -168.646571314898
                         10        0.138948E-01                -168.646700563277
                         11        0.138660E-01                -168.646700237384
                         12        0.629414E-02                -168.646712261956
                         13        0.566241E-02                -168.646713151996
                         14        0.495313E-02                -168.646714117454
                         15        0.421991E-02                -168.646714987798
                         16        0.338228E-02                -168.646715812720
                         17        0.416465E-02                -168.646716816326
                         18        0.344616E-02                -168.646717043212
                         19        0.330991E-02                -168.646717101846
                         20        0.313342E-02                -168.646717172930
                         21        0.281829E-02                -168.646717286496
                         22        0.848656E-03                -168.646717732580
                         23        0.109512E-02                -168.646717723740
                         24        0.104995E-02                -168.646717732012
                         25        0.102855E-02                -168.646717736906
                         26        0.100245E-02                -168.646717743176
                         27        0.676032E-03                -168.646717806927
                         28        0.602106E-03                -168.646717861030
                         29        0.625282E-03                -168.646717860099
                         30        0.624945E-03                -168.646717860052
                         31        0.623853E-03                -168.646717860100
                         32        0.624150E-03                -168.646717860067
                         33        0.237289E-03                -168.646717879062
                         34        0.180801E-03                -168.646717882280
                         35        0.181452E-03                -168.646717882256
                         36        0.181661E-03                -168.646717882245
                         37        0.181696E-03                -168.646717882243
                         38        0.180660E-03                -168.646717882285
                         39        0.167278E-03                -168.646717884960
                         40        0.108251E-03                -168.646717886084
                         41        0.108355E-03                -168.646717886083
                         42        0.108427E-03                -168.646717886083
                         43        0.108486E-03                -168.646717886083
                         44        0.108485E-03                -168.646717886083
                         45        0.694677E-04                -168.646717886478
                         46        0.318666E-04                -168.646717886752
                         47        0.318508E-04                -168.646717886753
                         48        0.318379E-04                -168.646717886753
                         49        0.318252E-04                -168.646717886753
                         50        0.320703E-04                -168.646717886751
 No convergence within maximum number of iterations 

 Energy components [Hartree]           Total Energy ::         -168.646717886751
                                        Band Energy ::          -26.584923955507
                                     Kinetic Energy ::           97.352330251814
                                   Potential Energy ::         -265.999048138565
                                      Virial (-V/T) ::            2.732333652934
                                        Core Energy ::         -299.595021414610
                                          XC Energy ::          -16.265210292971
                                     Coulomb Energy ::          147.213513820830
                       Total Pseudopotential Energy ::         -397.033695283644
                       Local Pseudopotential Energy ::         -362.697061997994
                    Nonlocal Pseudopotential Energy ::          -34.336633285650
                                        Confinement ::            0.863436172188

 Orbital energies  State     Spin  L     Occupation   Energy[a.u.]    Energy[eV]

                       1    alpha  0          1.000      -4.198782   -114.254674
                       2    alpha  0          1.000      -0.185813     -5.056229
                       1     beta  0          1.000      -4.107299   -111.765292
                       2     beta  0          1.000      -0.171331     -4.662162

                       1    alpha  1          3.000      -2.604156    -70.862688
                       1     beta  1          3.000      -2.515143    -68.440529

                       1    alpha  2          5.000      -0.348813     -9.491687
                       1     beta  2          3.000      -0.273245     -7.435375


 Total Electron Density at R=0:                                         0.030313

 Spin 1
 Re-scaling the density matrix to get the right number of electrons for spin 1
                  # Electrons              Trace(P)               Scaling factor
                          320               320.032                        1.000

 Spin 2
 Re-scaling the density matrix to get the right number of electrons for spin 2
                  # Electrons              Trace(P)               Scaling factor
                          256               256.035                        1.000


 SCF WAVEFUNCTION OPTIMIZATION

  Step     Update method      Time    Convergence         Total energy    Change
  ------------------------------------------------------------------------------
     1 NoMix/Diag. 0.10E-02    1.6     0.80945817     -5430.5035547420 -5.43E+03
     2 Broy./Diag. 0.10E-02    0.6     0.00018809     -5360.7714565342  6.97E+01
     3 Broy./Diag. 0.10E-02    0.6     0.04296733     -5371.6894941725 -1.09E+01
     4 Broy./Diag. 0.10E-02    0.6     0.05994558     -5412.9435845565 -4.13E+01
     5 Broy./Diag. 0.10E-02    0.6     0.02094132     -5390.0983461209  2.28E+01
     6 Broy./Diag. 0.10E-02    0.6     0.02719474     -5367.2587828578  2.28E+01
     7 Broy./Diag. 0.10E-02    0.6     0.02605210     -5365.8570711922  1.40E+00
     8 Broy./Diag. 0.10E-02    0.6     0.01054937     -5403.2576977681 -3.74E+01
     9 Broy./Diag. 0.10E-02    0.6     0.00485845     -5403.9362384701 -6.79E-01
    10 Broy./Diag. 0.10E-02    0.6     0.00276392     -5403.3087109334  6.28E-01
    11 Broy./Diag. 0.10E-02    0.6     0.01368179     -5400.5610336390  2.75E+00
    12 Broy./Diag. 0.10E-02    0.6     0.00712049     -5393.2215944016  7.34E+00
    13 Broy./Diag. 0.10E-02    0.6     0.00200602     -5393.4074927408 -1.86E-01
    14 Broy./Diag. 0.10E-02    0.6     0.00282213     -5394.8812652400 -1.47E+00
    15 Broy./Diag. 0.10E-02    0.6     0.02956949     -5398.0103986093 -3.13E+00
    16 Broy./Diag. 0.10E-02    0.6     0.00358575     -5418.2864430558 -2.03E+01
    17 Broy./Diag. 0.10E-02    0.6     0.00389317     -5420.3089536015 -2.02E+00
    18 Broy./Diag. 0.10E-02    0.6     0.00276450     -5417.3257527208  2.98E+00
    19 Broy./Diag. 0.10E-02    0.6     0.00100501     -5418.8290649056 -1.50E+00
    20 Broy./Diag. 0.10E-02    0.6     0.00292262     -5418.5432692478  2.86E-01
    21 Broy./Diag. 0.10E-02    0.6     0.01375385     -5424.2709632743 -5.73E+00
    22 Broy./Diag. 0.10E-02    0.6     0.01823194     -5437.2952000931 -1.30E+01
    23 Broy./Diag. 0.10E-02    0.6     0.01903144     -5437.6120063541 -3.17E-01
    24 Broy./Diag. 0.10E-02    0.6     0.00514485     -5434.2389602966  3.37E+00
    25 Broy./Diag. 0.10E-02    0.6     0.00059377     -5434.7177029273 -4.79E-01
    26 Broy./Diag. 0.10E-02    0.6     0.00998533     -5434.4414977958  2.76E-01
    27 Broy./Diag. 0.10E-02    0.6     0.00804236     -5430.5047571690  3.94E+00
    28 Broy./Diag. 0.10E-02    0.6     0.00241005     -5431.2944373718 -7.90E-01
    29 Broy./Diag. 0.10E-02    0.6     0.00762873     -5430.0954479370  1.20E+00
    30 Broy./Diag. 0.10E-02    0.6     0.00590613     -5428.4710409054  1.62E+00
    31 Broy./Diag. 0.10E-02    0.6     0.02054483     -5428.6192158570 -1.48E-01
    32 Broy./Diag. 0.10E-02    0.6     0.05195425     -5427.3640492847  1.26E+00
    33 Broy./Diag. 0.10E-02    0.6     0.03305662     -5410.0589220231  1.73E+01
    34 Broy./Diag. 0.10E-02    0.6     0.01554021     -5414.6245869874 -4.57E+00
    35 Broy./Diag. 0.10E-02    0.6     0.05340644     -5417.2099739715 -2.59E+00
    36 Broy./Diag. 0.10E-02    0.6     0.09132693     -5417.1162731806  9.37E-02
    37 Broy./Diag. 0.10E-02    0.6     0.10100570     -5415.2761231356  1.84E+00
    38 Broy./Diag. 0.10E-02    0.6     0.03357864     -5417.2334794110 -1.96E+00
    39 Broy./Diag. 0.10E-02    0.6     0.00980944     -5420.3979004482 -3.16E+00
    40 Broy./Diag. 0.10E-02    0.6     0.02445404     -5416.7370603136  3.66E+00
    41 Broy./Diag. 0.10E-02    0.6     0.07399993     -5417.3666511210 -6.30E-01
    42 Broy./Diag. 0.10E-02    0.6     0.18959545     -5436.5281832694 -1.92E+01
    43 Broy./Diag. 0.10E-02    0.6     0.19088090     -5419.2907154150  1.72E+01
    44 Broy./Diag. 0.10E-02    0.6     0.05763008     -5427.6460986411 -8.36E+00
    45 Broy./Diag. 0.10E-02    0.6     0.00497625     -5425.6182270265  2.03E+00
    46 Broy./Diag. 0.10E-02    0.6     0.00316686     -5425.3713648560  2.47E-01
    47 Broy./Diag. 0.10E-02    0.6     0.00913743     -5425.2169325292  1.54E-01
    48 Broy./Diag. 0.10E-02    0.6     0.00221723     -5425.1410653565  7.59E-02
    49 Broy./Diag. 0.10E-02    0.6     0.00346079     -5424.7006254973  4.40E-01
    50 Broy./Diag. 0.10E-02    0.6     0.00298425     -5423.8780201537  8.23E-01
    51 Broy./Diag. 0.10E-02    0.6     0.00587476     -5422.2675164307  1.61E+00
    52 Broy./Diag. 0.10E-02    0.6     0.01390023     -5420.7534949605  1.51E+00
    53 Broy./Diag. 0.10E-02    0.6     0.00626386     -5417.7363462452  3.02E+00
    54 Broy./Diag. 0.10E-02    0.6     0.00115520     -5417.8510930545 -1.15E-01
    55 Broy./Diag. 0.10E-02    0.6     0.00628730     -5417.5484695585  3.03E-01
    56 Broy./Diag. 0.10E-02    0.6     0.00055797     -5417.2176137501  3.31E-01
    57 Broy./Diag. 0.10E-02    0.6     0.00183716     -5416.8434416413  3.74E-01
    58 Broy./Diag. 0.10E-02    0.6     0.00324888     -5416.9801021973 -1.37E-01
    59 Broy./Diag. 0.10E-02    0.6     0.00106734     -5417.1654376700 -1.85E-01
    60 Broy./Diag. 0.10E-02    0.6     0.00097763     -5416.9960148591  1.69E-01
    61 Broy./Diag. 0.10E-02    0.6     0.00075331     -5416.8946193522  1.01E-01
    62 Broy./Diag. 0.10E-02    0.6     0.00058660     -5417.0437238252 -1.49E-01
    63 Broy./Diag. 0.10E-02    0.6     0.00043105     -5417.2846892951 -2.41E-01
    64 Broy./Diag. 0.10E-02    0.6     0.00114208     -5417.3321532583 -4.75E-02
    65 Broy./Diag. 0.10E-02    0.6     0.00133257     -5417.3583791601 -2.62E-02
    66 Broy./Diag. 0.10E-02    0.6     0.00127163     -5417.4917122642 -1.33E-01
    67 Broy./Diag. 0.10E-02    0.6     0.00115841     -5417.5026984003 -1.10E-02
    68 Broy./Diag. 0.10E-02    0.6     0.00018482     -5417.2884928876  2.14E-01
    69 Broy./Diag. 0.10E-02    0.6     0.00021522     -5417.2761465375  1.23E-02
    70 Broy./Diag. 0.10E-02    0.6     0.00063718     -5417.2750550335  1.09E-03
    71 Broy./Diag. 0.10E-02    0.6     0.00197713     -5417.3040945205 -2.90E-02
    72 Broy./Diag. 0.10E-02    0.6     0.00067579     -5417.3385270314 -3.44E-02
    73 Broy./Diag. 0.10E-02    0.6     0.00061121     -5417.4003797445 -6.19E-02
    74 Broy./Diag. 0.10E-02    0.6     0.00041145     -5417.3934972445  6.88E-03
    75 Broy./Diag. 0.10E-02    0.6     0.00147315     -5417.4793659726 -8.59E-02
    76 Broy./Diag. 0.10E-02    0.6     0.00161224     -5417.6408854167 -1.62E-01
    77 Broy./Diag. 0.10E-02    0.6     0.00007951     -5417.6648372508 -2.40E-02
    78 Broy./Diag. 0.10E-02    0.6     0.00011066     -5417.6461163899  1.87E-02
    79 Broy./Diag. 0.10E-02    0.6     0.00051933     -5417.6305829541  1.55E-02
    80 Broy./Diag. 0.10E-02    0.6     0.00026518     -5417.6434574178 -1.29E-02
    81 Broy./Diag. 0.10E-02    0.6     0.00068603     -5417.6864275891 -4.30E-02
    82 Broy./Diag. 0.10E-02    0.6     0.00064207     -5417.6951743624 -8.75E-03
    83 Broy./Diag. 0.10E-02    0.6     0.00037054     -5417.7123270550 -1.72E-02
    84 Broy./Diag. 0.10E-02    0.6     0.00075645     -5417.7157093180 -3.38E-03
    85 Broy./Diag. 0.10E-02    0.6     0.00071624     -5417.7012870522  1.44E-02
    86 Broy./Diag. 0.10E-02    0.6     0.00005722     -5417.6874683140  1.38E-02
    87 Broy./Diag. 0.10E-02    0.6     0.00014428     -5417.6798947234  7.57E-03
    88 Broy./Diag. 0.10E-02    0.6     0.00044520     -5417.7073997666 -2.75E-02
    89 Broy./Diag. 0.10E-02    0.6     0.00003814     -5417.7247365831 -1.73E-02
    90 Broy./Diag. 0.10E-02    0.6     0.00004478     -5417.7438719864 -1.91E-02
    91 Broy./Diag. 0.10E-02    0.6     0.00006493     -5417.7561185201 -1.22E-02
    92 Broy./Diag. 0.10E-02    0.6     0.00005426     -5417.7520670316  4.05E-03
    93 Broy./Diag. 0.10E-02    0.6     0.00025570     -5417.7658074438 -1.37E-02
    94 Broy./Diag. 0.10E-02    0.6     0.00018141     -5417.7800623261 -1.43E-02
    95 Broy./Diag. 0.10E-02    0.6     0.00005543     -5417.7853410218 -5.28E-03
    96 Broy./Diag. 0.10E-02    0.6     0.00020180     -5417.7907038486 -5.36E-03
    97 Broy./Diag. 0.10E-02    0.6     0.00023860     -5417.8024673655 -1.18E-02
    98 Broy./Diag. 0.10E-02    0.6     0.00003479     -5417.8139366363 -1.15E-02
    99 Broy./Diag. 0.10E-02    0.6     0.00019619     -5417.8337772715 -1.98E-02
   100 Broy./Diag. 0.10E-02    0.6     0.00040177     -5417.8524670639 -1.87E-02
   101 Broy./Diag. 0.10E-02    0.6     0.00003808     -5417.8388412339  1.36E-02
   102 Broy./Diag. 0.10E-02    0.6     0.00006824     -5417.8348627270  3.98E-03
   103 Broy./Diag. 0.10E-02    0.6     0.00080710     -5417.8317919830  3.07E-03
   104 Broy./Diag. 0.10E-02    0.6     0.00016005     -5417.8296564524  2.14E-03
   105 Broy./Diag. 0.10E-02    0.6     0.00011860     -5417.8321474982 -2.49E-03
   106 Broy./Diag. 0.10E-02    0.6     0.00083332     -5417.8424275457 -1.03E-02
   107 Broy./Diag. 0.10E-02    0.6     0.00063118     -5417.8494893838 -7.06E-03
   108 Broy./Diag. 0.10E-02    0.6     0.00013664     -5417.8534229056 -3.93E-03
   109 Broy./Diag. 0.10E-02    0.6     0.00007021     -5417.8519707153  1.45E-03
   110 Broy./Diag. 0.10E-02    0.6     0.00018673     -5417.8512230130  7.48E-04
   111 Broy./Diag. 0.10E-02    0.6     0.00017726     -5417.8502594447  9.64E-04
   112 Broy./Diag. 0.10E-02    0.6     0.00013451     -5417.8493505133  9.09E-04
   113 Broy./Diag. 0.10E-02    0.6     0.00002849     -5417.8497298316 -3.79E-04
   114 Broy./Diag. 0.10E-02    0.6     0.00012540     -5417.8517671640 -2.04E-03
   115 Broy./Diag. 0.10E-02    0.6     0.00001045     -5417.8529292356 -1.16E-03
   116 Broy./Diag. 0.10E-02    0.6     0.00007828     -5417.8515897027  1.34E-03
   117 Broy./Diag. 0.10E-02    0.7     0.00003656     -5417.8515196836  7.00E-05
   118 Broy./Diag. 0.10E-02    0.6     0.00003358     -5417.8516552975 -1.36E-04
   119 Broy./Diag. 0.10E-02    0.6     0.00010402     -5417.8532385602 -1.58E-03
   120 Broy./Diag. 0.10E-02    0.6     0.00010567     -5417.8531596410  7.89E-05
   121 Broy./Diag. 0.10E-02    0.6     0.00004061     -5417.8542324489 -1.07E-03
   122 Broy./Diag. 0.10E-02    0.6     0.00004327     -5417.8541168973  1.16E-04
   123 Broy./Diag. 0.10E-02    0.6     0.00002861     -5417.8541150472  1.85E-06
   124 Broy./Diag. 0.10E-02    0.6     0.00006211     -5417.8537161405  3.99E-04
   125 Broy./Diag. 0.10E-02    0.6     0.00001935     -5417.8523476908  1.37E-03
   126 Broy./Diag. 0.10E-02    0.6     0.00016361     -5417.8522523957  9.53E-05
   127 Broy./Diag. 0.10E-02    0.6     0.00002883     -5417.8490741751  3.18E-03
   128 Broy./Diag. 0.10E-02    0.6     0.00004881     -5417.8481678793  9.06E-04
   129 Broy./Diag. 0.10E-02    0.6     0.00002755     -5417.8468288847  1.34E-03
   130 Broy./Diag. 0.10E-02    0.6     0.00001704     -5417.8459797113  8.49E-04
   131 Broy./Diag. 0.10E-02    0.6     0.00002220     -5417.8449005854  1.08E-03
   132 Broy./Diag. 0.10E-02    0.6     0.00004454     -5417.8441317533  7.69E-04
   133 Broy./Diag. 0.10E-02    0.6     0.00006194     -5417.8422272757  1.90E-03
   134 Broy./Diag. 0.10E-02    0.6     0.00005828     -5417.8389029602  3.32E-03
   135 Broy./Diag. 0.10E-02    0.6     0.00002771     -5417.8354451898  3.46E-03
   136 Broy./Diag. 0.10E-02    0.6     0.00004831     -5417.8303424438  5.10E-03
   137 Broy./Diag. 0.10E-02    0.6     0.00010830     -5417.8252164549  5.13E-03
   138 Broy./Diag. 0.10E-02    0.6     0.00002285     -5417.8251032315  1.13E-04
   139 Broy./Diag. 0.10E-02    0.6     0.00004523     -5417.8248823726  2.21E-04
   140 Broy./Diag. 0.10E-02    0.6     0.00002666     -5417.8244123789  4.70E-04
   141 Broy./Diag. 0.10E-02    0.6     0.00001336     -5417.8241574714  2.55E-04
   142 Broy./Diag. 0.10E-02    0.6     0.00000287     -5417.8237598160  3.98E-04
   143 Broy./Diag. 0.10E-02    0.6     0.00001252     -5417.8228154331  9.44E-04
   144 Broy./Diag. 0.10E-02    0.6     0.00001608     -5417.8223071857  5.08E-04
   145 Broy./Diag. 0.10E-02    0.6     0.00002898     -5417.8221804365  1.27E-04
   146 Broy./Diag. 0.10E-02    0.6     0.00000480     -5417.8225302723 -3.50E-04
   147 Broy./Diag. 0.10E-02    0.6     0.00001744     -5417.8228980816 -3.68E-04
   148 Broy./Diag. 0.10E-02    0.6     0.00001304     -5417.8230487821 -1.51E-04
   149 Broy./Diag. 0.10E-02    0.6     0.00001088     -5417.8259228961 -2.87E-03
   150 Broy./Diag. 0.10E-02    0.6     0.00001605     -5417.8290584961 -3.14E-03
   151 Broy./Diag. 0.10E-02    0.6     0.00002087     -5417.8288815546  1.77E-04
   152 Broy./Diag. 0.10E-02    0.6     0.00003393     -5417.8283593386  5.22E-04
   153 Broy./Diag. 0.10E-02    0.6     0.00002063     -5417.8287410100 -3.82E-04
   154 Broy./Diag. 0.10E-02    0.6     0.00000741     -5417.8297983738 -1.06E-03
   155 Broy./Diag. 0.10E-02    0.6     0.00005773     -5417.8305004630 -7.02E-04
   156 Broy./Diag. 0.10E-02    0.6     0.00001663     -5417.8309663545 -4.66E-04
   157 Broy./Diag. 0.10E-02    0.6     0.00002860     -5417.8307791114  1.87E-04
   158 Broy./Diag. 0.10E-02    0.6     0.00001900     -5417.8309732334 -1.94E-04
   159 Broy./Diag. 0.10E-02    0.6     0.00001815     -5417.8302717707  7.01E-04
   160 Broy./Diag. 0.10E-02    0.6     0.00000208     -5417.8297426533  5.29E-04
   161 Broy./Diag. 0.10E-02    0.6     0.00000511     -5417.8301533537 -4.11E-04
   162 Broy./Diag. 0.10E-02    0.6     0.00001340     -5417.8313820629 -1.23E-03
   163 Broy./Diag. 0.10E-02    0.6     0.00000862     -5417.8321952059 -8.13E-04
   164 Broy./Diag. 0.10E-02    0.6     0.00000742     -5417.8323599434 -1.65E-04
   165 Broy./Diag. 0.10E-02    0.6     0.00000628     -5417.8324726267 -1.13E-04
   166 Broy./Diag. 0.10E-02    0.6     0.00000609     -5417.8321750244  2.98E-04
   167 Broy./Diag. 0.10E-02    0.6     0.00003710     -5417.8319922660  1.83E-04
   168 Broy./Diag. 0.10E-02    0.6     0.00000575     -5417.8320848177 -9.26E-05
   169 Broy./Diag. 0.10E-02    0.6     0.00001956     -5417.8323752071 -2.90E-04
   170 Broy./Diag. 0.10E-02    0.6     0.00000467     -5417.8327305607 -3.55E-04
   171 Broy./Diag. 0.10E-02    0.6     0.00000232     -5417.8331875388 -4.57E-04
   172 Broy./Diag. 0.10E-02    0.6     0.00001302     -5417.8341299514 -9.42E-04
   173 Broy./Diag. 0.10E-02    0.6     0.00000996     -5417.8348153488 -6.85E-04
   174 Broy./Diag. 0.10E-02    0.6     0.00000438     -5417.8348171455 -1.80E-06
   175 Broy./Diag. 0.10E-02    0.6     0.00000239     -5417.8348719332 -5.48E-05
   176 Broy./Diag. 0.10E-02    0.6     0.00001192     -5417.8348432098  2.87E-05
   177 Broy./Diag. 0.10E-02    0.6     0.00000670     -5417.8345383405  3.05E-04
   178 Broy./Diag. 0.10E-02    0.6     0.00001907     -5417.8343422806  1.96E-04
   179 Broy./Diag. 0.10E-02    0.6     0.00001633     -5417.8344205991 -7.83E-05
   180 Broy./Diag. 0.10E-02    0.6     0.00001314     -5417.8343930479  2.76E-05
   181 Broy./Diag. 0.10E-02    0.6     0.00001337     -5417.8345654277 -1.72E-04
   182 Broy./Diag. 0.10E-02    0.6     0.00000422     -5417.8343213734  2.44E-04
   183 Broy./Diag. 0.10E-02    0.6     0.00000665     -5417.8341749516  1.46E-04
   184 Broy./Diag. 0.10E-02    0.6     0.00000505     -5417.8343194986 -1.45E-04
   185 Broy./Diag. 0.10E-02    0.6     0.00000289     -5417.8342856942  3.38E-05
   186 Broy./Diag. 0.10E-02    0.6     0.00001505     -5417.8343357241 -5.00E-05
   187 Broy./Diag. 0.10E-02    0.6     0.00000697     -5417.8342553487  8.04E-05
   188 Broy./Diag. 0.10E-02    0.6     0.00001213     -5417.8343846303 -1.29E-04
   189 Broy./Diag. 0.10E-02    0.6     0.00001561     -5417.8341482096  2.36E-04
   190 Broy./Diag. 0.10E-02    0.6     0.00001318     -5417.8343371024 -1.89E-04
   191 Broy./Diag. 0.10E-02    0.6     0.00000598     -5417.8344386383 -1.02E-04
   192 Broy./Diag. 0.10E-02    0.6     0.00001434     -5417.8344762629 -3.76E-05
   193 Broy./Diag. 0.10E-02    0.6     0.00000879     -5417.8344318222  4.44E-05
   194 Broy./Diag. 0.10E-02    0.6     0.00000543     -5417.8341885543  2.43E-04
   195 Broy./Diag. 0.10E-02    0.6     0.00001766     -5417.8340745836  1.14E-04
   196 Broy./Diag. 0.10E-02    0.6     0.00001848     -5417.8341378688 -6.33E-05
   197 Broy./Diag. 0.10E-02    0.6     0.00001728     -5417.8343885440 -2.51E-04
   198 Broy./Diag. 0.10E-02    0.6     0.00000986     -5417.8346237723 -2.35E-04
   199 Broy./Diag. 0.10E-02    0.6     0.00002904     -5417.8343443848  2.79E-04
   200 Broy./Diag. 0.10E-02    0.6     0.00001149     -5417.8343841713 -3.98E-05
   201 Broy./Diag. 0.10E-02    0.6     0.00000662     -5417.8347980557 -4.14E-04
   202 Broy./Diag. 0.10E-02    0.6     0.00000884     -5417.8348348653 -3.68E-05
   203 Broy./Diag. 0.10E-02    0.6     0.00001252     -5417.8347871500  4.77E-05
   204 Broy./Diag. 0.10E-02    0.6     0.00003611     -5417.8348483350 -6.12E-05
   205 Broy./Diag. 0.10E-02    0.6     0.00000995     -5417.8348480855  2.50E-07
   206 Broy./Diag. 0.10E-02    0.6     0.00001103     -5417.8348606788 -1.26E-05
   207 Broy./Diag. 0.10E-02    0.6     0.00001092     -5417.8348975595 -3.69E-05
   208 Broy./Diag. 0.10E-02    0.6     0.00003283     -5417.8349016227 -4.06E-06
   209 Broy./Diag. 0.10E-02    0.6     0.00001405     -5417.8348331751  6.84E-05
   210 Broy./Diag. 0.10E-02    0.6     0.00002713     -5417.8347911188  4.21E-05
   211 Broy./Diag. 0.10E-02    0.6     0.00000199     -5417.8348179160 -2.68E-05
   212 Broy./Diag. 0.10E-02    0.6     0.00001676     -5417.8347400119  7.79E-05
   213 Broy./Diag. 0.10E-02    0.6     0.00000434     -5417.8348979726 -1.58E-04
   214 Broy./Diag. 0.10E-02    0.6     0.00002335     -5417.8349086706 -1.07E-05
   215 Broy./Diag. 0.10E-02    0.6     0.00000555     -5417.8350426950 -1.34E-04
   216 Broy./Diag. 0.10E-02    0.6     0.00000320     -5417.8350965877 -5.39E-05
   217 Broy./Diag. 0.10E-02    0.6     0.00001524     -5417.8352764694 -1.80E-04
   218 Broy./Diag. 0.10E-02    0.6     0.00000629     -5417.8353757657 -9.93E-05
   219 Broy./Diag. 0.10E-02    0.6     0.00000300     -5417.8352761071  9.97E-05
   220 Broy./Diag. 0.10E-02    0.6     0.00001335     -5417.8353599507 -8.38E-05
   221 Broy./Diag. 0.10E-02    0.6     0.00000304     -5417.8353597407  2.10E-07
   222 Broy./Diag. 0.10E-02    0.6     0.00001463     -5417.8352664696  9.33E-05
   223 Broy./Diag. 0.10E-02    0.6     0.00001041     -5417.8351141378  1.52E-04
   224 Broy./Diag. 0.10E-02    0.6     0.00004274     -5417.8347463183  3.68E-04
   225 Broy./Diag. 0.10E-02    0.6     0.00000779     -5417.8347680725 -2.18E-05
   226 Broy./Diag. 0.10E-02    0.6     0.00001424     -5417.8348324169 -6.43E-05
   227 Broy./Diag. 0.10E-02    0.6     0.00001405     -5417.8349115666 -7.91E-05
   228 Broy./Diag. 0.10E-02    0.6     0.00000558     -5417.8348403524  7.12E-05
   229 Broy./Diag. 0.10E-02    0.6     0.00000446     -5417.8348273390  1.30E-05
   230 Broy./Diag. 0.10E-02    0.6     0.00000162     -5417.8348692144 -4.19E-05
   231 Broy./Diag. 0.10E-02    0.6     0.00000849     -5417.8348740565 -4.84E-06
   232 Broy./Diag. 0.10E-02    0.6     0.00000482     -5417.8348830525 -9.00E-06
   233 Broy./Diag. 0.10E-02    0.6     0.00000851     -5417.8349654701 -8.24E-05
   234 Broy./Diag. 0.10E-02    0.6     0.00000477     -5417.8349196268  4.58E-05
   235 Broy./Diag. 0.10E-02    0.6     0.00001656     -5417.8347107083  2.09E-04
   236 Broy./Diag. 0.10E-02    0.6     0.00000195     -5417.8344935417  2.17E-04
   237 Broy./Diag. 0.10E-02    0.6     0.00000164     -5417.8347020924 -2.09E-04
   238 Broy./Diag. 0.10E-02    0.6     0.00000501     -5417.8345371473  1.65E-04
   239 Broy./Diag. 0.10E-02    0.6     0.00001419     -5417.8345559612 -1.88E-05
   240 Broy./Diag. 0.10E-02    0.6     0.00000827     -5417.8348785632 -3.23E-04
   241 Broy./Diag. 0.10E-02    0.6     0.00001598     -5417.8343019088  5.77E-04
   242 Broy./Diag. 0.10E-02    0.6     0.00000808     -5417.8344869245 -1.85E-04
   243 Broy./Diag. 0.10E-02    0.6     0.00000804     -5417.8342708501  2.16E-04
   244 Broy./Diag. 0.10E-02    0.6     0.00000443     -5417.8340417216  2.29E-04
   245 Broy./Diag. 0.10E-02    0.6     0.00000446     -5417.8339438285  9.79E-05
   246 Broy./Diag. 0.10E-02    0.6     0.00000369     -5417.8338678923  7.59E-05
   247 Broy./Diag. 0.10E-02    0.6     0.00000632     -5417.8342913780 -4.23E-04
   248 Broy./Diag. 0.10E-02    0.6     0.00000575     -5417.8342135107  7.79E-05
   249 Broy./Diag. 0.10E-02    0.6     0.00000565     -5417.8341172857  9.62E-05
   250 Broy./Diag. 0.10E-02    0.6     0.00000431     -5417.8325929030  1.52E-03
   251 Broy./Diag. 0.10E-02    0.6     0.00000125     -5417.8318179039  7.75E-04
   252 Broy./Diag. 0.10E-02    0.6     0.00000270     -5417.8317802533  3.77E-05
   253 Broy./Diag. 0.10E-02    0.6     0.00000270     -5417.8315454787  2.35E-04
   254 Broy./Diag. 0.10E-02    0.6     0.00000824     -5417.8312823259  2.63E-04
   255 Broy./Diag. 0.10E-02    0.6     0.00000513     -5417.8313732891 -9.10E-05
   256 Broy./Diag. 0.10E-02    0.6     0.00000386     -5417.8317924785 -4.19E-04
   257 Broy./Diag. 0.10E-02    0.6     0.00000520     -5417.8313588987  4.34E-04
   258 Broy./Diag. 0.10E-02    0.6     0.00000630     -5417.8307702642  5.89E-04
   259 Broy./Diag. 0.10E-02    0.6     0.00000655     -5417.8309306633 -1.60E-04
   260 Broy./Diag. 0.10E-02    0.6     0.00000490     -5417.8320217399 -1.09E-03
   261 Broy./Diag. 0.10E-02    0.6     0.00000322     -5417.8318278491  1.94E-04
   262 Broy./Diag. 0.10E-02    0.6     0.00001199     -5417.8317121576  1.16E-04
   263 Broy./Diag. 0.10E-02    0.6     0.00000209     -5417.8315725044  1.40E-04
   264 Broy./Diag. 0.10E-02    0.6     0.00000900     -5417.8315997599 -2.73E-05
   265 Broy./Diag. 0.10E-02    0.6     0.00000293     -5417.8315134757  8.63E-05
   266 Broy./Diag. 0.10E-02    0.6     0.00000440     -5417.8316408008 -1.27E-04
   267 Broy./Diag. 0.10E-02    0.6     0.00000676     -5417.8316713234 -3.05E-05
   268 Broy./Diag. 0.10E-02    0.6     0.00000571     -5417.8313901304  2.81E-04
   269 Broy./Diag. 0.10E-02    0.6     0.00000581     -5417.8311343032  2.56E-04
   270 Broy./Diag. 0.10E-02    0.6     0.00000599     -5417.8312198728 -8.56E-05
   271 Broy./Diag. 0.10E-02    0.6     0.00000575     -5417.8312970982 -7.72E-05
   272 Broy./Diag. 0.10E-02    0.6     0.00000477     -5417.8312063794  9.07E-05
   273 Broy./Diag. 0.10E-02    0.6     0.00000355     -5417.8315299845 -3.24E-04
   274 Broy./Diag. 0.10E-02    0.6     0.00001064     -5417.8317657101 -2.36E-04
   275 Broy./Diag. 0.10E-02    0.6     0.00000428     -5417.8318781765 -1.12E-04
   276 Broy./Diag. 0.10E-02    0.6     0.00000253     -5417.8319952142 -1.17E-04
   277 Broy./Diag. 0.10E-02    0.6     0.00000294     -5417.8322074337 -2.12E-04
   278 Broy./Diag. 0.10E-02    0.6     0.00000588     -5417.8321129597  9.45E-05
   279 Broy./Diag. 0.10E-02    0.6     0.00000278     -5417.8320409897  7.20E-05
   280 Broy./Diag. 0.10E-02    0.6     0.00000358     -5417.8318394228  2.02E-04
   281 Broy./Diag. 0.10E-02    0.6     0.00000582     -5417.8316798953  1.60E-04
   282 Broy./Diag. 0.10E-02    0.6     0.00000471     -5417.8318824787 -2.03E-04
   283 Broy./Diag. 0.10E-02    0.6     0.00000234     -5417.8319380806 -5.56E-05
   284 Broy./Diag. 0.10E-02    0.6     0.00000388     -5417.8317948182  1.43E-04
   285 Broy./Diag. 0.10E-02    0.6     0.00000990     -5417.8320647952 -2.70E-04
   286 Broy./Diag. 0.10E-02    0.6     0.00000363     -5417.8320904121 -2.56E-05
   287 Broy./Diag. 0.10E-02    0.6     0.00000522     -5417.8315850321  5.05E-04
   288 Broy./Diag. 0.10E-02    0.6     0.00000240     -5417.8318573297 -2.72E-04
[...]
      18     Ni       1         9.343601     8.656369     0.000030     0.687232
      19     Ni       1         9.343617     8.656335     0.000048     0.687282
      20     Ni       1         9.343603     8.656349     0.000048     0.687253
      21     Ni       1         9.343559     8.656450    -0.000009     0.687108
      22     Ni       1         9.343537     8.656483    -0.000020     0.687053
      23     Ni       1         9.343572     8.656433    -0.000006     0.687139
      24     Ni       1         9.343532     8.656500    -0.000032     0.687033
      25     Ni       1         9.343544     8.656476    -0.000021     0.687068
      26     Ni       1         9.343576     8.656418     0.000006     0.687157
      27     Ni       1         9.343552     8.656444     0.000004     0.687108
      28     Ni       1         9.343553     8.656455    -0.000007     0.687098
      29     Ni       1         9.343533     8.656488    -0.000021     0.687045
      30     Ni       1         9.343534     8.656479    -0.000013     0.687056
      31     Ni       1         9.343512     8.656534    -0.000046     0.686978
      32     Ni       1         9.343539     8.656473    -0.000012     0.687066
 # Total charge and spin      298.993985   277.006015    -0.000000    21.987970

 !-----------------------------------------------------------------------------!

 !-----------------------------------------------------------------------------!
                           Hirshfeld Charges

  #Atom  Element  Kind  Ref Charge     Population       Spin moment  Net charge
      1       Ni     1      18.000    9.344   8.656            0.687      0.000
      2       Ni     1      18.000    9.344   8.656            0.687      0.000
      3       Ni     1      18.000    9.344   8.656            0.687      0.000
      4       Ni     1      18.000    9.344   8.656            0.687      0.000
      5       Ni     1      18.000    9.344   8.656            0.687     -0.000
      6       Ni     1      18.000    9.344   8.656            0.687      0.000
      7       Ni     1      18.000    9.344   8.656            0.687      0.000
      8       Ni     1      18.000    9.344   8.656            0.687     -0.000
      9       Ni     1      18.000    9.344   8.656            0.687     -0.000
     10       Ni     1      18.000    9.344   8.656            0.687     -0.000
     11       Ni     1      18.000    9.344   8.656            0.687     -0.000
     12       Ni     1      18.000    9.344   8.656            0.687     -0.000
     13       Ni     1      18.000    9.344   8.657            0.687     -0.000
     14       Ni     1      18.000    9.344   8.656            0.687     -0.000
     15       Ni     1      18.000    9.344   8.656            0.687     -0.000
     16       Ni     1      18.000    9.344   8.656            0.687     -0.000
     17       Ni     1      18.000    9.344   8.656            0.687      0.000
     18       Ni     1      18.000    9.344   8.656            0.687      0.000
     19       Ni     1      18.000    9.344   8.656            0.687      0.000
     20       Ni     1      18.000    9.344   8.656            0.687      0.000
     21       Ni     1      18.000    9.344   8.656            0.687     -0.000
     22       Ni     1      18.000    9.344   8.656            0.687     -0.000
     23       Ni     1      18.000    9.344   8.656            0.687     -0.000
     24       Ni     1      18.000    9.344   8.657            0.687     -0.000
     25       Ni     1      18.000    9.344   8.656            0.687     -0.000
     26       Ni     1      18.000    9.344   8.656            0.687      0.000
     27       Ni     1      18.000    9.344   8.656            0.687      0.000
     28       Ni     1      18.000    9.344   8.656            0.687     -0.000
     29       Ni     1      18.000    9.344   8.656            0.687     -0.000
     30       Ni     1      18.000    9.344   8.656            0.687     -0.000
     31       Ni     1      18.000    9.344   8.657            0.687     -0.000
     32       Ni     1      18.000    9.344   8.656            0.687     -0.000

  Total Charge                                                           -0.000
 !-----------------------------------------------------------------------------!

 ENERGY| Total FORCE_EVAL ( QS ) energy [a.u.]:            -5417.832283918298344

 -------------------------------------------------------------------------------
 -                                                                             -
 -                                DBCSR STATISTICS                             -
 -                                                                             -
 -------------------------------------------------------------------------------
 COUNTER                                    TOTAL       BLAS       SMM       ACC
 flops    26 x    26 x    32         137060352000       0.0%    100.0%      0.0%
 flops    26 x    26 x    64         456867840000       0.0%    100.0%      0.0%
 flops inhomo. stacks                           0       0.0%      0.0%      0.0%
 flops total                       593.928192E+09       0.0%    100.0%      0.0%
 flops max/rank                      7.874048E+09       0.0%    100.0%      0.0%
 matmuls inhomo. stacks                         0       0.0%      0.0%      0.0%
 matmuls total                            8448000       0.0%    100.0%      0.0%
 number of processed stacks               2048000       0.0%    100.0%      0.0%
 average stack size                                     0.0       4.1       0.0
 marketing flops                   421.564383E+09
 -------------------------------------------------------------------------------
 # multiplications                           1000
 max memory usage/rank             232.321024E+06
 # max total images/rank                        2
 # max 3D layers                                1
 # MPI messages exchanged                 3712000
 MPI messages size (bytes):
  total size                       121.831424E+09
  min size                          13.312000E+03
  max size                          53.248000E+03
  average size                      32.820965E+03
 MPI breakdown and total messages size (bytes):
             size <=      128                   0                        0
       128 < size <=     8192                   0                        0
      8192 < size <=    32768             2512000              57933824000
     32768 < size <=   131072             1200000              63897600000
    131072 < size <=  4194304                   0                        0
   4194304 < size <= 16777216                   0                        0
  16777216 < size                               0                        0
 -------------------------------------------------------------------------------

 *** WARNING in dbcsr_mm.F:290 :: Using a non-square number of MPI ranks ***
 *** might lead to poor performance. Used ranks: 128 Suggested: 121 256  ***

 -------------------------------------------------------------------------------
 -                                                                             -
 -                      DBCSR MESSAGE PASSING PERFORMANCE                      -
 -                                                                             -
 -------------------------------------------------------------------------------
 ROUTINE             CALLS      AVE VOLUME [Bytes]
 MP_Bcast                3                     12.
 MP_Allreduce         7025                      8.
 MP_Alltoall         28012                  57203.
 MP_ISend            64000                  15890.
 MP_IRecv            64000                  15058.
 -------------------------------------------------------------------------------

 -------------------------------------------------------------------------------
 -                                                                             -
 -                                DBM STATISTICS                               -
 -                                                                             -
 -------------------------------------------------------------------------------
    M  x    N  x    K                                          COUNT     PERCENT
 -------------------------------------------------------------------------------

 -------------------------------------------------------------------------------
 -                                                                             -
 -                                GRID STATISTICS                              -
 -                                                                             -
 -------------------------------------------------------------------------------
 LP    KERNEL             BACKEND                              COUNT     PERCENT
 6     collocate ortho    REF                               77210112      50.02%
 6     integrate ortho    REF                               77056000      49.92%
 0     integrate general  REF                                  65536       0.04%
 0     collocate general  REF                                  36864       0.02%
 -------------------------------------------------------------------------------

 MEMORY| Estimated peak process memory [MiB]                                 224

 -------------------------------------------------------------------------------
 ----                             MULTIGRID INFO                            ----
 -------------------------------------------------------------------------------
 count for grid        1:         969696          cutoff [a.u.]          300.00
 count for grid        2:         304320          cutoff [a.u.]          100.00
 count for grid        3:         238080          cutoff [a.u.]           33.33
 count for grid        4:          65120          cutoff [a.u.]           11.11
 count for grid        5:           5120          cutoff [a.u.]            3.70
 total gridlevel count  :        1582336

 -------------------------------------------------------------------------------
 -                                                                             -
 -                         MESSAGE PASSING PERFORMANCE                         -
 -                                                                             -
 -------------------------------------------------------------------------------

 ROUTINE             CALLS      AVE VOLUME [Bytes]
 MP_Group                5
 MP_Bcast             2531                  75221.
 MP_Allreduce        12899                     95.
 MP_Sync             18021
 MP_Alltoall         33034               27070080.
 MP_SendRecv        509016                   5208.
 MP_ISendRecv       508000                   5208.
 MP_Wait            606262
 MP_comm_split        1000
 MP_ISend           206212                  38670.
 MP_IRecv           206456                  38627.
 MP_Recv              1250                 212992.
 MP_Write_All            2                  19908.
 -------------------------------------------------------------------------------


 -------------------------------------------------------------------------------
 -                                                                             -
 -                           R E F E R E N C E S                               -
 -                                                                             -
 -------------------------------------------------------------------------------
 
 CP2K version 2023.1, the CP2K developers group (2023).
 CP2K is freely available from https://www.cp2k.org/ .

 Kuehne,Thomas D.; Iannuzzi,Marcella; Del Ben,Mauro;
 Rybkin,Vladimir V.; Seewald,Patrick; Stein,Frederick; Laino,Teodoro;
 Khaliullin,Rustam Z.; Schuett,Ole; Schiffmann,Florian; Golze,Dorothea;
 Wilhelm,Jan; Chulkov,Sergey; Bani-Hashemian,Mohammad Hossein;
 Weber,Valery; Borstnik,Urban; Taillefumier,Mathieu;
 Jakobovits,Alice Shoshana; Lazzaro,Alfio; Pabst,Hans; Mueller,Tiziano;
 Schade,Robert; Guidon,Manuel; Andermatt,Samuel; Holmberg,Nico;
 Schenter,Gregory K.; Hehn,Anna; Bussy,Augustin; Belleflamme,Fabian;
 Tabacchi,Gloria; Gloess,Andreas; Lass,Michael; Bethune,Iain;
 Mundy,Christopher J.; Plessl,Christian; Watkins,Matt;
 VandeVondele,Joost; Krack,Matthias; Hutter,Juerg. 
 The Journal of Chemical Physics, 152 (19), (2020). 
 CP2K: An electronic structure and molecular dynamics software package -
 Quickstep: Efficient and accurate electronic structure calculations.
 https://doi.org/10.1063/5.0007045

 Schuett, Ole; Messmer, Peter; Hutter, Juerg; VandeVondele, Joost. 
 Electronic Structure Calculations on Graphics Processing Units, John
 Wiley & Sons, Ltd, 173-190 (2016). 
 GPU-Accelerated Sparse Matrix-Matrix Multiplication for
 Linear Scaling Density Functional Theory.
 https://doi.org/10.1002/9781118670712.ch8

 Heinecke, A; Henry, G; Hutchinson, M; Pabst, H. 
 Proceedings of Intl. Supercomputing Conference, 981-991 (2016). 
 LIBXSMM: Accelerating Small Matrix Multiplications
 by Runtime Code Generation.
 https://doi.org/10.1109/SC.2016.83

 Borstnik, U; VandeVondele, J; Weber, V; Hutter, J. 
 PARALLEL COMPUTING, 40 (5-6), 47-58 (2014). 
 Sparse matrix multiplication: The distributed block-compressed sparse
 row library.
 https://doi.org/10.1016/j.parco.2014.03.012

 Hutter, J; Iannuzzi, M; Schiffmann, F; VandeVondele, J. 
 WIREs Comput Mol Sci., 4 (1), 15-25 (2014). 
 CP2K: atomistic simulations of condensed matter systems.
 https://doi.org/10.1002/wcms.1159

 Marek, A; Blum, V; Johanni, R; Havu, V; Lang, B; Auckenthaler, T;
 Heinecke, A; Bungartz, H; Lederer, H. 
 Journal of Physics: Condensed Matter, 26 (21), (2014). 
 The ELPA library: scalable parallel eigenvalue solutions for
 electronic structure
 theory and computational science.
 https://doi.org/10.1088/0953-8984/26/21/213201

 VandeVondele, J; Hutter, J. 
 JOURNAL OF CHEMICAL PHYSICS, 127 (11), 114105 (2007). 
 Gaussian basis sets for accurate calculations on molecular systems in
 gas and condensed phases.
 https://doi.org/10.1063/1.2770708

 Krack, M. 
 THEORETICAL CHEMISTRY ACCOUNTS, 114 (1-3), 145-152 (2005). 
 Pseudopotentials for H to Kr optimized for gradient-corrected
 exchange-correlation functionals.
 https://doi.org/10.1007/s00214-005-0655-y

 VandeVondele, J; Krack, M; Mohamed, F; Parrinello, M; Chassaing, T;
 Hutter, J. COMPUTER PHYSICS COMMUNICATIONS, 167 (2), 103-128 (2005). 
 QUICKSTEP: Fast and accurate density functional calculations using a
 mixed Gaussian and plane waves approach.
 https://doi.org/10.1016/j.cpc.2004.12.014

 Frigo, M; Johnson, SG. 
 PROCEEDINGS OF THE IEEE, 93 (2), 216-231 (2005). 
 The design and implementation of FFTW3.
 https://doi.org/10.1109/JPROC.2004.840301

 Hartwigsen, C; Goedecker, S; Hutter, J. 
 PHYSICAL REVIEW B, 58 (7), 3641-3662 (1998). 
 Relativistic separable dual-space Gaussian pseudopotentials from H to Rn.
 https://doi.org/10.1103/PhysRevB.58.3641

 Lippert, G; Hutter, J; Parrinello, M. 
 MOLECULAR PHYSICS, 92 (3), 477-487 (1997). 
 A hybrid Gaussian and plane wave density functional scheme.
 https://doi.org/10.1080/002689797170220

 Perdew, JP; Burke, K; Ernzerhof, M. 
 PHYSICAL REVIEW LETTERS, 77 (18), 3865-3868 (1996). 
 Generalized gradient approximation made simple.
 https://doi.org/10.1103/PhysRevLett.77.3865

 Goedecker, S; Teter, M; Hutter, J. 
 PHYSICAL REVIEW B, 54 (3), 1703-1710 (1996). 
 Separable dual-space Gaussian pseudopotentials.
 https://doi.org/10.1103/PhysRevB.54.1703


 -------------------------------------------------------------------------------
 -                                                                             -
 -                                T I M I N G                                  -
 -                                                                             -
 -------------------------------------------------------------------------------
 SUBROUTINE                       CALLS  ASD         SELF TIME        TOTAL TIME
                                MAXIMUM       AVERAGE  MAXIMUM  AVERAGE  MAXIMUM
 CP2K                                 1  1.0    0.135    0.137  295.582  295.584
 qs_energies                          1  2.0    0.001    0.001  295.021  295.021
 scf_env_do_scf                       1  3.0    0.001    0.002  293.859  293.865
 scf_env_do_scf_inner_loop          500  4.0    0.021    0.045  293.856  293.863
 qs_ks_update_qs_env                500  5.0    0.007    0.008  102.338  102.395
 rebuild_ks_matrix                  500  6.0    0.003    0.003  102.282  102.339
 qs_ks_build_kohn_sham_matrix       500  7.0    0.074    0.110  102.279  102.337
 qs_scf_new_mos                     500  5.0    0.009    0.013   96.440   96.603
 qs_rho_update_rho_low              501  5.0    0.004    0.005   89.632   89.656
 calculate_rho_elec                1002  6.0    0.078    0.087   89.628   89.652
 eigensolver                       1000  6.0    0.095    0.134   88.309   88.365
 sum_up_and_integrate               500  8.0    0.069    0.132   86.128   86.195
 integrate_v_rspace                1000  9.0    0.027    0.037   86.055   86.132
 cp_fm_diag_elpa                   1000  7.0    0.004    0.009   79.028   79.162
 cp_fm_redistribute_end            1000  8.0   68.271   78.206   68.499   78.212
 cp_fm_diag_elpa_base              1000  8.0    9.490   76.086    9.632   77.089
 grid_collocate_task_list          1002  7.0   68.793   71.545   68.793   71.545
 grid_integrate_task_list          1000 10.0   61.606   64.437   61.606   64.437
 rs_pw_transfer                   10014  9.5    0.120    0.174   31.112   33.357
 density_rs2pw                     1002  7.0    0.039    0.046   19.837   22.055
 pw_transfer                      20511 10.0    2.537    2.712   21.029   21.843
 potential_pw2rs                   1000 10.0    0.038    0.044   20.735   20.925
 fft_wrap_pw1pw2                  19511 11.1    0.084    0.095   18.458   19.480
 fft_wrap_pw1pw2_300              11503 12.4    0.398    0.465   15.203   15.807
 qs_vxc_create                      500  8.0    0.008    0.009   14.811   14.858
 xc_vxc_pw_create                   500  9.0    0.132    0.146   14.803   14.850
 fft3d_pb                         11503 13.4    3.558    3.925   12.875   13.783
 mp_waitany                       64192 11.5    9.692   12.411    9.692   12.411
 rs_pw_transfer_PW2RS_300          1002 12.0    4.042    4.745   11.684   12.204
 rs_pw_transfer_RS2PW_300          1004  9.0    2.921    4.196    9.183   11.378
 mp_alltoall_z22v                 31014 15.2    8.017    9.657    8.017    9.657
 xc_rho_set_and_dset_create         500 10.0    0.145    0.169    9.017    9.508
 cp_fm_cholesky_restore            3000  7.0    8.909    9.159    8.909    9.159
 xc_pw_derive                      6000 11.0    0.016    0.019    8.167    8.865
 mp_alltoall_d11v                 14008  9.3    4.761    6.957    4.761    6.957
 xc_pw_divergence                  1000 10.0    0.008    0.010    5.510    6.302
 rs_gather_matrices                1000 10.0    0.057    0.106    3.687    5.924
 -------------------------------------------------------------------------------

 The number of warnings for this run is : 4
 
 -------------------------------------------------------------------------------
  **** **** ******  **  PROGRAM ENDED AT                 2023-02-06 16:41:16.397
 ***** ** ***  *** **   PROGRAM RAN ON                                 nid006260
 **    ****   ******    PROGRAM RAN BY                                    cahart
 ***** **    ** ** **   PROGRAM PROCESS ID                                101915
  **** **  *******  **  PROGRAM STOPPED IN /mnt/lustre/a2fs-work2/work/e05/e05/c
                                           ahart/postdoc/masters/ni/archer2/bulk
                                           /optimise/multiplicity-65-magnetizati
                                           on/search/1.0E-3_1.0E-1
