 DBCSR| CPU Multiplication driver                                           XSMM (U)
 DBCSR| Multrec recursion limit                                              512 (U)
 DBCSR| Multiplication stack size                                           1000 (D)
 DBCSR| Maximum elements for images                                    UNLIMITED (U)
 DBCSR| Multiplicative factor virtual images                                   1 (U)
 DBCSR| Use multiplication densification                                       T (D)
 DBCSR| Multiplication size stacks                                             3 (U)
 DBCSR| Use memory pool for CPU allocation                                     F (U)
 DBCSR| Number of 3D layers                                               SINGLE (U)
 DBCSR| Use MPI memory allocation                                              F (U)
 DBCSR| Use RMA algorithm                                                      F (U)
 DBCSR| Use Communication thread                                               T (U)
 DBCSR| Communication thread load                                             87 (D)
 DBCSR| MPI: My process id                                                     0
 DBCSR| MPI: Number of processes                                             128
 DBCSR| OMP: Current number of threads                                         1
 DBCSR| OMP: Max number of threads                                             1
 DBCSR| Split modifier for TAS multiplication algorithm                  1.0E+00 (U)


  **** **** ******  **  PROGRAM STARTED AT               2023-02-15 10:19:01.138
 ***** ** ***  *** **   PROGRAM STARTED ON                             nid004266
 **    ****   ******    PROGRAM STARTED BY                                cahart
 ***** **    ** ** **   PROGRAM PROCESS ID                                 44130
  **** **  *******  **  PROGRAM STARTED IN /mnt/lustre/a2fs-work2/work/e05/e05/c
                                           ahart/postdoc/masters/ni/archer2/slab
                                           /optimise/magnetisation/scf_1e-3_temp
                                           -2000_mos-1000_alpha-0.08_beta-1.5_pe
                                           riodic-xyz/search/0.22_0.6

 CP2K| version string:                 CP2K version 2023.1 (Development Version)
 CP2K| source code revision number:                                  git:964cd58
 CP2K| cp2kflags: omp libint fftw3 libxc elpa parallel scalapack xsmm plumed2 mk
 CP2K|            l
 CP2K| is freely available from                            https://www.cp2k.org/
 CP2K| Program compiled at                          Mon 13 Feb 17:05:14 GMT 2023
 CP2K| Program compiled on                                                  ln01
 CP2K| Program compiled for                                              ARCHER2
 CP2K| Data directory path    /work/e05/e05/cahart/cp2k/cp2k-2023.1/cp2k-2023.1-
 CP2K| Input file name                                                  cp2k.inp

 GLOBAL| Force Environment number                                              1
 GLOBAL| Basis set file name                                        BASIS_MOLOPT
 GLOBAL| Potential file name                                      GTH_POTENTIALS
 GLOBAL| MM Potential file name                                     MM_POTENTIAL
 GLOBAL| Coordinate file name                                      __STD_INPUT__
 GLOBAL| Method name                                                        CP2K
 GLOBAL| Project name                                                    Ni_bulk
 GLOBAL| Run type                                                         ENERGY
 GLOBAL| FFT library                                                       FFTW3
 GLOBAL| Diagonalization library                                            ELPA
 GLOBAL| DGEMM library                                                      BLAS
 GLOBAL| Minimum number of eigenvectors for ELPA usage                        16
 GLOBAL| Orthonormality check for eigenvectors                          DISABLED
 GLOBAL| Matrix multiplication library                                 ScaLAPACK
 GLOBAL| All-to-all communication in single precision                          F
 GLOBAL| FFTs using library dependent lengths                                  F
 GLOBAL| Grid backend                                                       AUTO
 GLOBAL| Global print level                                               MEDIUM
 GLOBAL| MPI I/O enabled                                                       T
 GLOBAL| Total number of message passing processes                           128
 GLOBAL| Number of threads for this process                                    1
 GLOBAL| This output is from process                                           0
 GLOBAL| Stack size for threads created by OpenMP (OMP_STACKSIZE)        default
 GLOBAL| CPU model name                          AMD EPYC 7742 64-Core Processor
 GLOBAL| CPUID                                                              1002

 MEMORY| system memory details [Kb]
 MEMORY|                        rank 0           min           max       average
 MEMORY| MemTotal            263528084     263528084     263528084     263528084
 MEMORY| MemFree             239210644     239210644     239210644     239210644
 MEMORY| Buffers                 25988         25988         25988         25988
 MEMORY| Cached                 586432        586432        586432        586432
 MEMORY| Slab                  1525552       1525552       1525552       1525552
 MEMORY| SReclaimable           106316        106316        106316        106316
 MEMORY| MemLikelyFree       239929380     239929380     239929380     239929380


 *** Fundamental physical constants (SI units) ***

 *** Literature: B. J. Mohr and B. N. Taylor,
 ***             CODATA recommended values of the fundamental physical
 ***             constants: 2006, Web Version 5.1
 ***             http://physics.nist.gov/constants

 Speed of light in vacuum [m/s]                             2.99792458000000E+08
 Magnetic constant or permeability of vacuum [N/A**2]       1.25663706143592E-06
 Electric constant or permittivity of vacuum [F/m]          8.85418781762039E-12
 Planck constant (h) [J*s]                                  6.62606896000000E-34
 Planck constant (h-bar) [J*s]                              1.05457162825177E-34
 Elementary charge [C]                                      1.60217648700000E-19
 Electron mass [kg]                                         9.10938215000000E-31
 Electron g factor [ ]                                     -2.00231930436220E+00
 Proton mass [kg]                                           1.67262163700000E-27
 Fine-structure constant                                    7.29735253760000E-03
 Rydberg constant [1/m]                                     1.09737315685270E+07
 Avogadro constant [1/mol]                                  6.02214179000000E+23
 Boltzmann constant [J/K]                                   1.38065040000000E-23
 Atomic mass unit [kg]                                      1.66053878200000E-27
 Bohr radius [m]                                            5.29177208590000E-11

 *** Conversion factors ***

 [u] -> [a.u.]                                              1.82288848426455E+03
 [Angstrom] -> [Bohr] = [a.u.]                              1.88972613288564E+00
 [a.u.] = [Bohr] -> [Angstrom]                              5.29177208590000E-01
 [a.u.] -> [s]                                              2.41888432650478E-17
 [a.u.] -> [fs]                                             2.41888432650478E-02
 [a.u.] -> [J]                                              4.35974393937059E-18
 [a.u.] -> [N]                                              8.23872205491840E-08
 [a.u.] -> [K]                                              3.15774647902944E+05
 [a.u.] -> [kJ/mol]                                         2.62549961709828E+03
 [a.u.] -> [kcal/mol]                                       6.27509468713739E+02
 [a.u.] -> [Pa]                                             2.94210107994716E+13
 [a.u.] -> [bar]                                            2.94210107994716E+08
 [a.u.] -> [atm]                                            2.90362800883016E+08
 [a.u.] -> [eV]                                             2.72113838565563E+01
 [a.u.] -> [Hz]                                             6.57968392072181E+15
 [a.u.] -> [1/cm] (wave numbers)                            2.19474631370540E+05
 [a.u./Bohr**2] -> [1/cm]                                   5.14048714338585E+03
 

 CELL_TOP| Volume [angstrom^3]:                                       983.249569
 CELL_TOP| Vector a [angstrom     7.012     0.000     0.000   |a| =     7.011596
 CELL_TOP| Vector b [angstrom     0.000     7.012     0.000   |b| =     7.011596
 CELL_TOP| Vector c [angstrom     0.000     0.000    20.000   |c| =    20.000000
 CELL_TOP| Angle (b,c), alpha [degree]:                                90.000000
 CELL_TOP| Angle (a,c), beta  [degree]:                                90.000000
 CELL_TOP| Angle (a,b), gamma [degree]:                                90.000000
 CELL_TOP| Numerically orthorhombic:                                         YES
 CELL_TOP| Periodicity                                                       XYZ

 GENERATE|  Preliminary Number of Bonds generated:                             0
 GENERATE|  Achieved consistency in connectivity generation.

 CELL| Volume [angstrom^3]:                                           983.249569
 CELL| Vector a [angstrom]:       7.012     0.000     0.000   |a| =     7.011596
 CELL| Vector b [angstrom]:       0.000     7.012     0.000   |b| =     7.011596
 CELL| Vector c [angstrom]:       0.000     0.000    20.000   |c| =    20.000000
 CELL| Angle (b,c), alpha [degree]:                                    90.000000
 CELL| Angle (a,c), beta  [degree]:                                    90.000000
 CELL| Angle (a,b), gamma [degree]:                                    90.000000
 CELL| Numerically orthorhombic:                                             YES
 CELL| Periodicity                                                           XYZ

 CELL_REF| Volume [angstrom^3]:                                       983.249569
 CELL_REF| Vector a [angstrom     7.012     0.000     0.000   |a| =     7.011596
 CELL_REF| Vector b [angstrom     0.000     7.012     0.000   |b| =     7.011596
 CELL_REF| Vector c [angstrom     0.000     0.000    20.000   |c| =    20.000000
 CELL_REF| Angle (b,c), alpha [degree]:                                90.000000
 CELL_REF| Angle (a,c), beta  [degree]:                                90.000000
 CELL_REF| Angle (a,b), gamma [degree]:                                90.000000
 CELL_REF| Numerically orthorhombic:                                         YES
 CELL_REF| Periodicity                                                       XYZ

 *** WARNING in cryssym.F:165 :: Symmetry library SPGLIB not available ***


 *******************************************************************************
                                    Kpoints
 *******************************************************************************
 BRILLOUIN| K-point scheme                                        Monkhorst-Pack
 BRILLOUIN| K-Point grid                                             4    4    1
 BRILLOUIN| Accuracy in Symmetry determination                      0.100000E-05
 BRILLOUIN| K-Point point group symmetrization                               OFF
 BRILLOUIN| Wavefunction type                                            COMPLEX
 BRILLOUIN| List of Kpoints [2 Pi/Bohr]                                        8
 BRILLOUIN| Number           Weight            X              Y              Z
 BRILLOUIN|     1           0.12500       -0.37500       -0.37500        0.00000
 BRILLOUIN|     2           0.12500       -0.37500       -0.12500        0.00000
 BRILLOUIN|     3           0.12500       -0.37500        0.12500        0.00000
 BRILLOUIN|     4           0.12500       -0.37500        0.37500        0.00000
 BRILLOUIN|     5           0.12500       -0.12500       -0.37500        0.00000
 BRILLOUIN|     6           0.12500       -0.12500       -0.12500        0.00000
 BRILLOUIN|     7           0.12500       -0.12500        0.12500        0.00000
 BRILLOUIN|     8           0.12500       -0.12500        0.37500        0.00000
 *******************************************************************************

 *******************************************************************************
 *******************************************************************************
 **                                                                           **
 **     #####                         ##              ##                      **
 **    ##   ##            ##          ##              ##                      **
 **   ##     ##                       ##            ######                    **
 **   ##     ##  ##   ##  ##   #####  ##  ##   ####   ##    #####    #####    **
 **   ##     ##  ##   ##  ##  ##      ## ##   ##      ##   ##   ##  ##   ##   **
 **   ##  ## ##  ##   ##  ##  ##      ####     ###    ##   ######   ######    **
 **    ##  ###   ##   ##  ##  ##      ## ##      ##   ##   ##       ##        **
 **     #######   #####   ##   #####  ##  ##  ####    ##    #####   ##        **
 **           ##                                                    ##        **
 **                                                                           **
 **                                                ... make the atoms dance   **
 **                                                                           **
 **            Copyright (C) by CP2K developers group (2000-2023)             **
 **                      J. Chem. Phys. 152, 194103 (2020)                    **
 **                                                                           **
 *******************************************************************************

 *** WARNING in qs_environment.F:1456 :: Number of electrons will be ***
 *** overwritten by NELEC_ALPHA and NELEC_BETA, multiplicity will be ***
 *** ignored.                                                        ***

 Number of electrons should be                                               576
 Sum of NELEC_ALPHA and NELEC_BETA is                                    576.000

 *** WARNING in qs_environment.F:1488 :: NELEC_ALPHA is not an integer, ***
 *** many features will not be supported.                               ***


 *** WARNING in qs_environment.F:1500 :: NELEC_BETA is not an integer, ***
 *** many features will not be supported.                              ***


 *** WARNING in qs_environment.F:1532 :: More ADDED_MOs requested for beta ***
 *** spin than available.                                                  ***


 *** WARNING in qs_environment.F:1548 :: More added MOs requested than     ***
 *** available. The full set of unoccupied MOs will be used. Use           ***
 *** 'ADDED_MOS -1' to always use all available MOs and to get rid of this ***
 *** warning.                                                              ***


 DFT| Spin unrestricted (spin-polarized) Kohn-Sham calculation               UKS
 DFT| Multiplicity                                                             1
 DFT| Number of spin states                                                    2
 DFT| Charge                                                                   0
 DFT| Self-interaction correction (SIC)                                       NO
 DFT| Cutoffs: density                                              1.000000E-10
 DFT|          gradient                                             1.000000E-10
 DFT|          tau                                                  1.000000E-10
 DFT|          cutoff_smoothing_range                               0.000000E+00
 DFT| XC density smoothing                                                  NONE
 DFT| XC derivatives                                                          PW

 FUNCTIONAL| PBE:
 FUNCTIONAL| J.P.Perdew, K.Burke, M.Ernzerhof, Phys. Rev. Letter, vol. 77, n 18,
 FUNCTIONAL|  pp. 3865-3868, (1996){spin polarized}                             

 vdW POTENTIAL|                                                   Pair Potential
 vdW POTENTIAL|          DFT-D3 (Version 3.1)
 vdW POTENTIAL|          Potential Form: S. Grimme et al, JCP 132: 154104 (2010)
 vdW POTENTIAL|          Zero Damping
 vdW POTENTIAL|          Cutoff Radius [Bohr]:                             20.00
 vdW POTENTIAL|          s6 Scaling Factor:                               1.0000
 vdW POTENTIAL|          sr6 Scaling Factor:                              1.2170
 vdW POTENTIAL|          s8 Scaling Factor:                               0.7220
 vdW POTENTIAL|          Cutoff for CN calculation:                   0.1000E-05

 QS| Method:                                                                 GPW
 QS| Density plane wave grid type                        NON-SPHERICAL FULLSPACE
 QS| Number of grid levels:                                                    5
 QS| Density cutoff [a.u.]:                                                300.0
 QS| Multi grid cutoff [a.u.]: 1) grid level                               300.0
 QS|                           2) grid level                               100.0
 QS|                           3) grid level                                33.3
 QS|                           4) grid level                                11.1
 QS|                           5) grid level                                 3.7
 QS| Grid level progression factor:                                          3.0
 QS| Relative density cutoff [a.u.]:                                        30.0
 QS| Interaction thresholds: eps_pgf_orb:                                1.0E-06
 QS|                         eps_filter_matrix:                          0.0E+00
 QS|                         eps_core_charge:                            1.0E-14
 QS|                         eps_rho_gspace:                             1.0E-12
 QS|                         eps_rho_rspace:                             1.0E-12
 QS|                         eps_gvg_rspace:                             1.0E-06
 QS|                         eps_ppl:                                    1.0E-02
 QS|                         eps_ppnl:                                   1.0E-08


 ATOMIC KIND INFORMATION

  1. Atomic kind: Ni_i                                  Number of atoms:      16

     Orbital Basis Set                                        DZVP-MOLOPT-SR-GTH

       Number of orbital shell sets:                                           1
       Number of orbital shells:                                               8
       Number of primitive Cartesian functions:                                6
       Number of Cartesian basis functions:                                   31
       Number of spherical basis functions:                                   26
       Norm type:                                                              2

       Normalised Cartesian orbitals:

                        Set   Shell   Orbital            Exponent    Coefficient

                          1       1    2s               10.077428      -0.684558
                                                         5.847736      -0.844524
                                                         2.494033       1.088856
                                                         0.988355       0.395503
                                                         0.344978       0.010224
                                                         0.099466      -0.003250

                          1       2    3s               10.077428       0.096747
                                                         5.847736       0.162504
                                                         2.494033      -0.297192
                                                         0.988355      -0.319752
                                                         0.344978       0.088318
                                                         0.099466       0.118587

                          1       3    4s               10.077428       0.036437
                                                         5.847736      -0.381480
                                                         2.494033       0.003759
                                                         0.988355      -1.048256
                                                         0.344978       0.855825
                                                         0.099466      -0.176350

                          1       4    3px              10.077428      -3.133913
                                                         5.847736       3.027656
                                                         2.494033       2.353227
                                                         0.988355       0.554184
                                                         0.344978       0.019462
                                                         0.099466      -0.000291
                          1       4    3py              10.077428      -3.133913
                                                         5.847736       3.027656
                                                         2.494033       2.353227
                                                         0.988355       0.554184
                                                         0.344978       0.019462
                                                         0.099466      -0.000291
                          1       4    3pz              10.077428      -3.133913
                                                         5.847736       3.027656
                                                         2.494033       2.353227
                                                         0.988355       0.554184
                                                         0.344978       0.019462
                                                         0.099466      -0.000291

                          1       5    4px              10.077428      -0.112729
                                                         5.847736      -0.114008
                                                         2.494033      -0.347303
                                                         0.988355      -0.110323
                                                         0.344978       0.154096
                                                         0.099466       0.058386
                          1       5    4py              10.077428      -0.112729
                                                         5.847736      -0.114008
                                                         2.494033      -0.347303
                                                         0.988355      -0.110323
                                                         0.344978       0.154096
                                                         0.099466       0.058386
                          1       5    4pz              10.077428      -0.112729
                                                         5.847736      -0.114008
                                                         2.494033      -0.347303
                                                         0.988355      -0.110323
                                                         0.344978       0.154096
                                                         0.099466       0.058386

                          1       6    4dx2             10.077428       8.232726
                                                         5.847736       9.105758
                                                         2.494033       2.849835
                                                         0.988355       0.554319
                                                         0.344978       0.067245
                                                         0.099466       0.001940
                          1       6    4dxy             10.077428      14.259500
                                                         5.847736      15.771636
                                                         2.494033       4.936060
                                                         0.988355       0.960109
                                                         0.344978       0.116472
                                                         0.099466       0.003360
                          1       6    4dxz             10.077428      14.259500
                                                         5.847736      15.771636
                                                         2.494033       4.936060
                                                         0.988355       0.960109
                                                         0.344978       0.116472
                                                         0.099466       0.003360
                          1       6    4dy2             10.077428       8.232726
                                                         5.847736       9.105758
                                                         2.494033       2.849835
                                                         0.988355       0.554319
                                                         0.344978       0.067245
                                                         0.099466       0.001940
                          1       6    4dyz             10.077428      14.259500
                                                         5.847736      15.771636
                                                         2.494033       4.936060
                                                         0.988355       0.960109
                                                         0.344978       0.116472
                                                         0.099466       0.003360
                          1       6    4dz2             10.077428       8.232726
                                                         5.847736       9.105758
                                                         2.494033       2.849835
                                                         0.988355       0.554319
                                                         0.344978       0.067245
                                                         0.099466       0.001940

                          1       7    5dx2             10.077428      -2.715373
                                                         5.847736      -4.020640
                                                         2.494033      -1.397569
                                                         0.988355      -0.076143
                                                         0.344978       0.033435
                                                         0.099466       0.026032
                          1       7    5dxy             10.077428      -4.703164
                                                         5.847736      -6.963952
                                                         2.494033      -2.420661
                                                         0.988355      -0.131883
                                                         0.344978       0.057911
                                                         0.099466       0.045088
                          1       7    5dxz             10.077428      -4.703164
                                                         5.847736      -6.963952
                                                         2.494033      -2.420661
                                                         0.988355      -0.131883
                                                         0.344978       0.057911
                                                         0.099466       0.045088
                          1       7    5dy2             10.077428      -2.715373
                                                         5.847736      -4.020640
                                                         2.494033      -1.397569
                                                         0.988355      -0.076143
                                                         0.344978       0.033435
                                                         0.099466       0.026032
                          1       7    5dyz             10.077428      -4.703164
                                                         5.847736      -6.963952
                                                         2.494033      -2.420661
                                                         0.988355      -0.131883
                                                         0.344978       0.057911
                                                         0.099466       0.045088
                          1       7    5dz2             10.077428      -2.715373
                                                         5.847736      -4.020640
                                                         2.494033      -1.397569
                                                         0.988355      -0.076143
                                                         0.344978       0.033435
                                                         0.099466       0.026032

                          1       8    5fx3             10.077428      -0.467694
                                                         5.847736       0.618100
                                                         2.494033       0.066069
                                                         0.988355       0.262898
                                                         0.344978       0.004720
                                                         0.099466       0.007748
                          1       8    5fx2y            10.077428      -1.045795
                                                         5.847736       1.382114
                                                         2.494033       0.147734
                                                         0.988355       0.587859
                                                         0.344978       0.010555
                                                         0.099466       0.017325
                          1       8    5fx2z            10.077428      -1.045795
                                                         5.847736       1.382114
                                                         2.494033       0.147734
                                                         0.988355       0.587859
                                                         0.344978       0.010555
                                                         0.099466       0.017325
                          1       8    5fxy2            10.077428      -1.045795
                                                         5.847736       1.382114
                                                         2.494033       0.147734
                                                         0.988355       0.587859
                                                         0.344978       0.010555
                                                         0.099466       0.017325
                          1       8    5fxyz            10.077428      -1.811371
                                                         5.847736       2.393892
                                                         2.494033       0.255883
                                                         0.988355       1.018201
                                                         0.344978       0.018282
                                                         0.099466       0.030008
                          1       8    5fxz2            10.077428      -1.045795
                                                         5.847736       1.382114
                                                         2.494033       0.147734
                                                         0.988355       0.587859
                                                         0.344978       0.010555
                                                         0.099466       0.017325
                          1       8    5fy3             10.077428      -0.467694
                                                         5.847736       0.618100
                                                         2.494033       0.066069
                                                         0.988355       0.262898
                                                         0.344978       0.004720
                                                         0.099466       0.007748
                          1       8    5fy2z            10.077428      -1.045795
                                                         5.847736       1.382114
                                                         2.494033       0.147734
                                                         0.988355       0.587859
                                                         0.344978       0.010555
                                                         0.099466       0.017325
                          1       8    5fyz2            10.077428      -1.045795
                                                         5.847736       1.382114
                                                         2.494033       0.147734
                                                         0.988355       0.587859
                                                         0.344978       0.010555
                                                         0.099466       0.017325
                          1       8    5fz3             10.077428      -0.467694
                                                         5.847736       0.618100
                                                         2.494033       0.066069
                                                         0.988355       0.262898
                                                         0.344978       0.004720
                                                         0.099466       0.007748

       Atomic covalent radius [Angstrom]:                                  1.150

       Atomic van der Waals radius [Angstrom]:                             1.630

     GTH Potential information for                                   GTH-PBE-q18

       Description:                       Goedecker-Teter-Hutter pseudopotential
                                           Goedecker et al., PRB 54, 1703 (1996)
                                          Hartwigsen et al., PRB 58, 3641 (1998)
                                                      Krack, TCA 114, 145 (2005)

       Gaussian exponent of the core charge distribution:               4.081633
       Electronic configuration (s p d ...):                           4   6   8

       Parameters of the local part of the GTH pseudopotential:

                          rloc        C1          C2          C3          C4
                        0.350000    2.102166    0.648484

       Parameters of the non-local part of the GTH pseudopotential:

                   l      r(l)      h(i,j,l)

                   0    0.261295    0.622658    9.970227
                                    9.970227  -12.871507
                   1    0.224253  -11.142708   12.429566
                                   12.429566  -14.706861
                   2    0.215348  -12.628146

  2. Atomic kind: Ni_b                                  Number of atoms:      16

     Orbital Basis Set                                        DZVP-MOLOPT-SR-GTH

       Number of orbital shell sets:                                           1
       Number of orbital shells:                                               8
       Number of primitive Cartesian functions:                                6
       Number of Cartesian basis functions:                                   31
       Number of spherical basis functions:                                   26
       Norm type:                                                              2

       Normalised Cartesian orbitals:

                        Set   Shell   Orbital            Exponent    Coefficient

                          1       1    2s               10.077428      -0.684558
                                                         5.847736      -0.844524
                                                         2.494033       1.088856
                                                         0.988355       0.395503
                                                         0.344978       0.010224
                                                         0.099466      -0.003250

                          1       2    3s               10.077428       0.096747
                                                         5.847736       0.162504
                                                         2.494033      -0.297192
                                                         0.988355      -0.319752
                                                         0.344978       0.088318
                                                         0.099466       0.118587

                          1       3    4s               10.077428       0.036437
                                                         5.847736      -0.381480
                                                         2.494033       0.003759
                                                         0.988355      -1.048256
                                                         0.344978       0.855825
                                                         0.099466      -0.176350

                          1       4    3px              10.077428      -3.133913
                                                         5.847736       3.027656
                                                         2.494033       2.353227
                                                         0.988355       0.554184
                                                         0.344978       0.019462
                                                         0.099466      -0.000291
                          1       4    3py              10.077428      -3.133913
                                                         5.847736       3.027656
                                                         2.494033       2.353227
                                                         0.988355       0.554184
                                                         0.344978       0.019462
                                                         0.099466      -0.000291
                          1       4    3pz              10.077428      -3.133913
                                                         5.847736       3.027656
                                                         2.494033       2.353227
                                                         0.988355       0.554184
                                                         0.344978       0.019462
                                                         0.099466      -0.000291

                          1       5    4px              10.077428      -0.112729
                                                         5.847736      -0.114008
                                                         2.494033      -0.347303
                                                         0.988355      -0.110323
                                                         0.344978       0.154096
                                                         0.099466       0.058386
                          1       5    4py              10.077428      -0.112729
                                                         5.847736      -0.114008
                                                         2.494033      -0.347303
                                                         0.988355      -0.110323
                                                         0.344978       0.154096
                                                         0.099466       0.058386
                          1       5    4pz              10.077428      -0.112729
                                                         5.847736      -0.114008
                                                         2.494033      -0.347303
                                                         0.988355      -0.110323
                                                         0.344978       0.154096
                                                         0.099466       0.058386

                          1       6    4dx2             10.077428       8.232726
                                                         5.847736       9.105758
                                                         2.494033       2.849835
                                                         0.988355       0.554319
                                                         0.344978       0.067245
                                                         0.099466       0.001940
                          1       6    4dxy             10.077428      14.259500
                                                         5.847736      15.771636
                                                         2.494033       4.936060
                                                         0.988355       0.960109
                                                         0.344978       0.116472
                                                         0.099466       0.003360
                          1       6    4dxz             10.077428      14.259500
                                                         5.847736      15.771636
                                                         2.494033       4.936060
                                                         0.988355       0.960109
                                                         0.344978       0.116472
                                                         0.099466       0.003360
                          1       6    4dy2             10.077428       8.232726
                                                         5.847736       9.105758
                                                         2.494033       2.849835
                                                         0.988355       0.554319
                                                         0.344978       0.067245
                                                         0.099466       0.001940
                          1       6    4dyz             10.077428      14.259500
                                                         5.847736      15.771636
                                                         2.494033       4.936060
                                                         0.988355       0.960109
                                                         0.344978       0.116472
                                                         0.099466       0.003360
                          1       6    4dz2             10.077428       8.232726
                                                         5.847736       9.105758
                                                         2.494033       2.849835
                                                         0.988355       0.554319
                                                         0.344978       0.067245
                                                         0.099466       0.001940

                          1       7    5dx2             10.077428      -2.715373
                                                         5.847736      -4.020640
                                                         2.494033      -1.397569
                                                         0.988355      -0.076143
                                                         0.344978       0.033435
                                                         0.099466       0.026032
                          1       7    5dxy             10.077428      -4.703164
                                                         5.847736      -6.963952
                                                         2.494033      -2.420661
                                                         0.988355      -0.131883
                                                         0.344978       0.057911
                                                         0.099466       0.045088
                          1       7    5dxz             10.077428      -4.703164
                                                         5.847736      -6.963952
                                                         2.494033      -2.420661
                                                         0.988355      -0.131883
                                                         0.344978       0.057911
                                                         0.099466       0.045088
                          1       7    5dy2             10.077428      -2.715373
                                                         5.847736      -4.020640
                                                         2.494033      -1.397569
                                                         0.988355      -0.076143
                                                         0.344978       0.033435
                                                         0.099466       0.026032
                          1       7    5dyz             10.077428      -4.703164
                                                         5.847736      -6.963952
                                                         2.494033      -2.420661
                                                         0.988355      -0.131883
                                                         0.344978       0.057911
                                                         0.099466       0.045088
                          1       7    5dz2             10.077428      -2.715373
                                                         5.847736      -4.020640
                                                         2.494033      -1.397569
                                                         0.988355      -0.076143
                                                         0.344978       0.033435
                                                         0.099466       0.026032

                          1       8    5fx3             10.077428      -0.467694
                                                         5.847736       0.618100
                                                         2.494033       0.066069
                                                         0.988355       0.262898
                                                         0.344978       0.004720
                                                         0.099466       0.007748
                          1       8    5fx2y            10.077428      -1.045795
                                                         5.847736       1.382114
                                                         2.494033       0.147734
                                                         0.988355       0.587859
                                                         0.344978       0.010555
                                                         0.099466       0.017325
                          1       8    5fx2z            10.077428      -1.045795
                                                         5.847736       1.382114
                                                         2.494033       0.147734
                                                         0.988355       0.587859
                                                         0.344978       0.010555
                                                         0.099466       0.017325
                          1       8    5fxy2            10.077428      -1.045795
                                                         5.847736       1.382114
                                                         2.494033       0.147734
                                                         0.988355       0.587859
                                                         0.344978       0.010555
                                                         0.099466       0.017325
                          1       8    5fxyz            10.077428      -1.811371
                                                         5.847736       2.393892
                                                         2.494033       0.255883
                                                         0.988355       1.018201
                                                         0.344978       0.018282
                                                         0.099466       0.030008
                          1       8    5fxz2            10.077428      -1.045795
                                                         5.847736       1.382114
                                                         2.494033       0.147734
                                                         0.988355       0.587859
                                                         0.344978       0.010555
                                                         0.099466       0.017325
                          1       8    5fy3             10.077428      -0.467694
                                                         5.847736       0.618100
                                                         2.494033       0.066069
                                                         0.988355       0.262898
                                                         0.344978       0.004720
                                                         0.099466       0.007748
                          1       8    5fy2z            10.077428      -1.045795
                                                         5.847736       1.382114
                                                         2.494033       0.147734
                                                         0.988355       0.587859
                                                         0.344978       0.010555
                                                         0.099466       0.017325
                          1       8    5fyz2            10.077428      -1.045795
                                                         5.847736       1.382114
                                                         2.494033       0.147734
                                                         0.988355       0.587859
                                                         0.344978       0.010555
                                                         0.099466       0.017325
                          1       8    5fz3             10.077428      -0.467694
                                                         5.847736       0.618100
                                                         2.494033       0.066069
                                                         0.988355       0.262898
                                                         0.344978       0.004720
                                                         0.099466       0.007748

       Atomic covalent radius [Angstrom]:                                  1.150

       Atomic van der Waals radius [Angstrom]:                             1.630

     GTH Potential information for                                   GTH-PBE-q18

       Description:                       Goedecker-Teter-Hutter pseudopotential
                                           Goedecker et al., PRB 54, 1703 (1996)
                                          Hartwigsen et al., PRB 58, 3641 (1998)
                                                      Krack, TCA 114, 145 (2005)

       Gaussian exponent of the core charge distribution:               4.081633
       Electronic configuration (s p d ...):                           4   6   8

       Parameters of the local part of the GTH pseudopotential:

                          rloc        C1          C2          C3          C4
                        0.350000    2.102166    0.648484

       Parameters of the non-local part of the GTH pseudopotential:

                   l      r(l)      h(i,j,l)

                   0    0.261295    0.622658    9.970227
                                    9.970227  -12.871507
                   1    0.224253  -11.142708   12.429566
                                   12.429566  -14.706861
                   2    0.215348  -12.628146


 MOLECULE KIND INFORMATION


 All atoms are their own molecule, skipping detailed information


 TOTAL NUMBERS AND MAXIMUM NUMBERS

  Total number of            - Atomic kinds:                                   2
                             - Atoms:                                         32
                             - Shell sets:                                    32
                             - Shells:                                       256
                             - Primitive Cartesian functions:                192
                             - Cartesian basis functions:                    992
                             - Spherical basis functions:                    832

  Maximum angular momentum of- Orbital basis functions:                        3
                             - Local part of the GTH pseudopotential:          2
                             - Non-local part of the GTH pseudopotential:      3


 MODULE QUICKSTEP: ATOMIC COORDINATES IN ANGSTROM

   Atom Kind Element         X             Y             Z       Z(eff)     Mass
      1    1 Ni   28      0.876298      0.876298      7.370500  18.0000  58.6934
      2    1 Ni   28      0.876298      4.382298      7.370500  18.0000  58.6934
      3    1 Ni   28      2.629298      2.629298      7.370500  18.0000  58.6934
      4    1 Ni   28      2.629298      6.135298      7.370500  18.0000  58.6934
      5    1 Ni   28      4.382298      0.876298      7.370500  18.0000  58.6934
      6    1 Ni   28      4.382298      4.382298      7.370500  18.0000  58.6934
      7    1 Ni   28      6.135298      2.629298      7.370500  18.0000  58.6934
      8    1 Ni   28      6.135298      6.135298      7.370500  18.0000  58.6934
      9    2 Ni   28      0.876298      2.629298      9.123500  18.0000  58.6934
     10    2 Ni   28      0.876298      6.135298      9.123500  18.0000  58.6934
     11    2 Ni   28      2.629298      0.876298      9.123500  18.0000  58.6934
     12    2 Ni   28      2.629298      4.382298      9.123500  18.0000  58.6934
     13    2 Ni   28      4.382298      2.629298      9.123500  18.0000  58.6934
     14    2 Ni   28      4.382298      6.135298      9.123500  18.0000  58.6934
     15    2 Ni   28      6.135298      0.876298      9.123500  18.0000  58.6934
     16    2 Ni   28      6.135298      4.382298      9.123500  18.0000  58.6934
     17    2 Ni   28      0.876298      0.876298     10.876500  18.0000  58.6934
     18    2 Ni   28      0.876298      4.382298     10.876500  18.0000  58.6934
     19    2 Ni   28      2.629298      2.629298     10.876500  18.0000  58.6934
     20    2 Ni   28      2.629298      6.135298     10.876500  18.0000  58.6934
     21    2 Ni   28      4.382298      0.876298     10.876500  18.0000  58.6934
     22    2 Ni   28      4.382298      4.382298     10.876500  18.0000  58.6934
     23    2 Ni   28      6.135298      2.629298     10.876500  18.0000  58.6934
     24    2 Ni   28      6.135298      6.135298     10.876500  18.0000  58.6934
     25    1 Ni   28      0.876298      2.629298     12.629500  18.0000  58.6934
     26    1 Ni   28      0.876298      6.135298     12.629500  18.0000  58.6934
     27    1 Ni   28      2.629298      0.876298     12.629500  18.0000  58.6934
     28    1 Ni   28      2.629298      4.382298     12.629500  18.0000  58.6934
     29    1 Ni   28      4.382298      2.629298     12.629500  18.0000  58.6934
     30    1 Ni   28      4.382298      6.135298     12.629500  18.0000  58.6934
     31    1 Ni   28      6.135298      0.876298     12.629500  18.0000  58.6934
     32    1 Ni   28      6.135298      4.382298     12.629500  18.0000  58.6934



 SCF PARAMETERS         Density guess:                                    ATOMIC
                        --------------------------------------------------------
                        max_scf:                                             500
                        max_scf_history:                                       0
                        max_diis:                                              4
                        --------------------------------------------------------
                        eps_scf:                                        1.00E-03
                        eps_scf_history:                                0.00E+00
                        eps_diis:                                       1.00E-01
                        eps_eigval:                                     1.00E-05
                        --------------------------------------------------------
                        level_shift [a.u.]:                             0.000000
                        added MOs                                       537  550
                        --------------------------------------------------------
                        Mixing method:                            BROYDEN_MIXING
                                                charge density mixing in g-space
                        --------------------------------------------------------
                        Smear method:                                FERMI_DIRAC
                        Electronic temperature [K]:                       2000.0
                        Electronic temperature [a.u.]:                  6.33E-03
                        Accuracy threshold:                             1.00E-10
                        --------------------------------------------------------
                        No outer SCF

 PW_GRID| Information for grid number                                          1
 PW_GRID| Grid distributed over                                   128 processors
 PW_GRID| Real space group dimensions                                     8   16
 PW_GRID| the grid is blocked:                                               YES
 PW_GRID| Cutoff [a.u.]                                                    300.0
 PW_GRID| spherical cutoff:                                                   NO
 PW_GRID|   Bounds   1            -54      53                Points:         108
 PW_GRID|   Bounds   2            -54      53                Points:         108
 PW_GRID|   Bounds   3           -150     149                Points:         300
 PW_GRID| Volume element (a.u.^3)  0.1896E-02     Volume (a.u.^3)      6635.2971
 PW_GRID| Grid span                                                    FULLSPACE
 PW_GRID|   Distribution                         Average         Max         Min
 PW_GRID|   G-Vectors                            27337.5       28728       25272
 PW_GRID|   G-Rays                                 253.1         266         234
 PW_GRID|   Real Space Points                    27337.5       28728       25272

 PW_GRID| Information for grid number                                          2
 PW_GRID| Number of the reference grid                                         1
 PW_GRID| Grid distributed over                                   128 processors
 PW_GRID| Real space group dimensions                                     8   16
 PW_GRID| the grid is blocked:                                                NO
 PW_GRID| Cutoff [a.u.]                                                    100.0
 PW_GRID| spherical cutoff:                                                   NO
 PW_GRID|   Bounds   1            -30      29                Points:          60
 PW_GRID|   Bounds   2            -30      29                Points:          60
 PW_GRID|   Bounds   3            -90      89                Points:         180
 PW_GRID| Volume element (a.u.^3)  0.1024E-01     Volume (a.u.^3)      6635.2971
 PW_GRID| Grid span                                                    FULLSPACE
 PW_GRID|   Distribution                         Average         Max         Min
 PW_GRID|   G-Vectors                             5062.5       15960           0
 PW_GRID|   G-Rays                                  84.4         266           0
 PW_GRID|   Real Space Points                     5062.5        5760        3780

 PW_GRID| Information for grid number                                          3
 PW_GRID| Number of the reference grid                                         1
 PW_GRID| Grid distributed over                                   128 processors
 PW_GRID| Real space group dimensions                                     8   16
 PW_GRID| the grid is blocked:                                                NO
 PW_GRID| Cutoff [a.u.]                                                     33.3
 PW_GRID| spherical cutoff:                                                   NO
 PW_GRID|   Bounds   1            -18      17                Points:          36
 PW_GRID|   Bounds   2            -18      17                Points:          36
 PW_GRID|   Bounds   3            -50      49                Points:         100
 PW_GRID| Volume element (a.u.^3)  0.5120E-01     Volume (a.u.^3)      6635.2971
 PW_GRID| Grid span                                                    FULLSPACE
 PW_GRID|   Distribution                         Average         Max         Min
 PW_GRID|   G-Vectors                             1012.5        9576           0
 PW_GRID|   G-Rays                                  28.1         266           0
 PW_GRID|   Real Space Points                     1012.5        1500         800

 PW_GRID| Information for grid number                                          4
 PW_GRID| Number of the reference grid                                         1
 PW_GRID| Grid distributed over                                   128 processors
 PW_GRID| Real space group dimensions                                     8   16
 PW_GRID| the grid is blocked:                                                NO
 PW_GRID| Cutoff [a.u.]                                                     11.1
 PW_GRID| spherical cutoff:                                                   NO
 PW_GRID|   Bounds   1            -10       9                Points:          20
 PW_GRID|   Bounds   2            -10       9                Points:          20
 PW_GRID|   Bounds   3            -30      29                Points:          60
 PW_GRID| Volume element (a.u.^3)  0.2765         Volume (a.u.^3)      6635.2971
 PW_GRID| Grid span                                                    FULLSPACE
 PW_GRID|   Distribution                         Average         Max         Min
 PW_GRID|   G-Vectors                              187.5        3800           0
 PW_GRID|   G-Rays                                   9.4         190           0
 PW_GRID|   Real Space Points                      187.5         360         120

 PW_GRID| Information for grid number                                          5
 PW_GRID| Number of the reference grid                                         1
 PW_GRID| Grid distributed over                                   128 processors
 PW_GRID| Real space group dimensions                                     8   16
 PW_GRID| the grid is blocked:                                                NO
 PW_GRID| Cutoff [a.u.]                                                      3.7
 PW_GRID| spherical cutoff:                                                   NO
 PW_GRID|   Bounds   1             -6       5                Points:          12
 PW_GRID|   Bounds   2             -6       5                Points:          12
 PW_GRID|   Bounds   3            -18      17                Points:          36
 PW_GRID| Volume element (a.u.^3)   1.280         Volume (a.u.^3)      6635.2971
 PW_GRID| Grid span                                                    FULLSPACE
 PW_GRID|   Distribution                         Average         Max         Min
 PW_GRID|   G-Vectors                               40.5        1296           0
 PW_GRID|   G-Rays                                   3.4         108           0
 PW_GRID|   Real Space Points                       40.5          72           0

 POISSON| Solver                                                        PERIODIC
 POISSON| Periodicity                                                        XYZ

 RS_GRID| Information for grid number                                          1
 RS_GRID|   Bounds   1            -54      53                Points:         108
 RS_GRID|   Bounds   2            -54      53                Points:         108
 RS_GRID|   Bounds   3           -150     149                Points:         300
 RS_GRID| Real space distribution over                                  8 groups
 RS_GRID| Real space distribution along direction                              2
 RS_GRID| Border size                                                         28
 RS_GRID| Real space distribution over                                 16 groups
 RS_GRID| Real space distribution along direction                              3
 RS_GRID| Border size                                                         28
 RS_GRID|   Distribution                         Average         Max         Min
 RS_GRID|   Planes                                  69.5          70          69
 RS_GRID|   Distribution                         Average         Max         Min
 RS_GRID|   Planes                                  74.8          75          74

 RS_GRID| Information for grid number                                          2
 RS_GRID|   Bounds   1            -30      29                Points:          60
 RS_GRID|   Bounds   2            -30      29                Points:          60
 RS_GRID|   Bounds   3            -90      89                Points:         180
 RS_GRID| Real space fully replicated
 RS_GRID| Group size                                                           1

 RS_GRID| Information for grid number                                          3
 RS_GRID|   Bounds   1            -18      17                Points:          36
 RS_GRID|   Bounds   2            -18      17                Points:          36
 RS_GRID|   Bounds   3            -50      49                Points:         100
 RS_GRID| Real space fully replicated
 RS_GRID| Group size                                                           1

 RS_GRID| Information for grid number                                          4
 RS_GRID|   Bounds   1            -10       9                Points:          20
 RS_GRID|   Bounds   2            -10       9                Points:          20
 RS_GRID|   Bounds   3            -30      29                Points:          60
 RS_GRID| Real space fully replicated
 RS_GRID| Group size                                                           1

 RS_GRID| Information for grid number                                          5
 RS_GRID|   Bounds   1             -6       5                Points:          12
 RS_GRID|   Bounds   2             -6       5                Points:          12
 RS_GRID|   Bounds   3            -18      17                Points:          36
 RS_GRID| Real space fully replicated
 RS_GRID| Group size                                                           1

 Spin 1

 Number of electrons:                                                        294.560
 Number of occupied orbitals:                                                295
 Number of molecular orbitals:                                               832

 Spin 2

 Number of electrons:                                                        281.440
 Number of occupied orbitals:                                                282
 Number of molecular orbitals:                                               832

 Number of orbital functions:                                                832
 Number of independent orbital functions:                                    832

 Extrapolation method: initial_guess

 Atomic guess: The first density matrix is obtained in terms of atomic orbitals
               and electronic configurations assigned to each atomic kind

 Guess for atomic kind: Ni_i

 Electronic structure
    Total number of core electrons                                         10.00
    Total number of valence electrons                                      18.00
    Total number of electrons                                              28.00
    Multiplicity                                                         doublet
    Alpha Electrons
    S   [  1.00  1.00] 1.00  1.00
    P   [  3.00] 3.00
    D      4.30
    Beta Electrons
    S   [  1.00  1.00] 1.00  1.00
    P   [  3.00] 3.00
    D      3.70


 *******************************************************************************
                  Iteration          Convergence                     Energy [au]
 *******************************************************************************
                          1         1.51708                    -167.066118163909
                          2         15.1863                    -156.630620063797
                          3         2.29518                    -168.318250074867
                          4        0.198051                    -168.608832938310
                          5        0.762142E-01                -168.611735578094
                          6        0.143308E-01                -168.612261389358
                          7        0.453828E-02                -168.612313512258
                          8        0.436836E-02                -168.612313369107
                          9        0.696306E-03                -168.612315351147
                         10        0.226261E-02                -168.612315025774
                         11        0.995757E-03                -168.612315268998
                         12        0.170432E-03                -168.612315393602
                         13        0.195344E-03                -168.612315392852
                         14        0.147467E-03                -168.612315396817
                         15        0.185080E-03                -168.612315392680
                         16        0.969041E-04                -168.612315398729
                         17        0.991109E-04                -168.612315398505
                         18        0.433236E-04                -168.612315399326
                         19        0.269198E-04                -168.612315399408
                         20        0.109432E-04                -168.612315399455
                         21        0.443439E-05                -168.612315399480
                         22        0.816741E-05                -168.612315399471
                         23        0.470984E-05                -168.612315399481
                         24        0.245833E-05                -168.612315399483
                         25        0.100766E-05                -168.612315399484
                         26        0.417991E-06                -168.612315399483

 Energy components [Hartree]           Total Energy ::         -168.612315399483
                                        Band Energy ::          -26.569179124340
                                     Kinetic Energy ::           97.305065650248
                                   Potential Energy ::         -265.917381049731
                                      Virial (-V/T) ::            2.732821557364
                                        Core Energy ::         -299.567011526383
                                          XC Energy ::          -16.225783039068
                                     Coulomb Energy ::          147.180479165968
                       Total Pseudopotential Energy ::         -396.958417944166
                       Local Pseudopotential Energy ::         -362.646534962999
                    Nonlocal Pseudopotential Energy ::          -34.311882981167
                                        Confinement ::            0.863407675347

 Orbital energies  State     Spin  L     Occupation   Energy[a.u.]    Energy[eV]

                       1    alpha  0          1.000      -4.170511   -113.485387
                       2    alpha  0          1.000      -0.181081     -4.927469
                       1     beta  0          1.000      -4.143060   -112.738394
                       2     beta  0          1.000      -0.176746     -4.809500

                       1    alpha  1          3.000      -2.576642    -70.114003
                       1     beta  1          3.000      -2.549934    -69.387228

                       1    alpha  2          4.300      -0.325251     -8.850518
                       1     beta  2          3.700      -0.302561     -8.233099


 Total Electron Density at R=0:                                         0.030426

 Guess for atomic kind: Ni_b

 Electronic structure
    Total number of core electrons                                         10.00
    Total number of valence electrons                                      18.00
    Total number of electrons                                              28.00
    Multiplicity                                                         singlet
    Alpha Electrons
    S   [  1.00  1.00] 1.00  1.00
    P   [  3.00] 3.00
    D      4.11
    Beta Electrons
    S   [  1.00  1.00] 1.00  1.00
    P   [  3.00] 3.00
    D      3.89


 *******************************************************************************
                  Iteration          Convergence                     Energy [au]
 *******************************************************************************
                          1         1.51626                    -167.062987024315
                          2         14.4059                    -156.601743950789
                          3         2.14404                    -168.315582916894
                          4        0.163683                    -168.606264756423
                          5        0.551847E-01                -168.609010326312
                          6        0.661585E-02                -168.609362133666
                          7        0.373705E-02                -168.609367784686
                          8        0.409527E-02                -168.609367918609
                          9        0.863064E-03                -168.609369298965
                         10        0.810417E-03                -168.609369383947
                         11        0.668821E-03                -168.609369371361
                         12        0.101198E-02                -168.609369364482
                         13        0.575358E-03                -168.609369418753
                         14        0.321844E-03                -168.609369440621
                         15        0.256329E-03                -168.609369447465
                         16        0.305769E-03                -168.609369452400
                         17        0.423195E-03                -168.609369446375
                         18        0.386089E-03                -168.609369448381
                         19        0.266678E-03                -168.609369454054
                         20        0.120146E-03                -168.609369458465
                         21        0.141343E-03                -168.609369459573
                         22        0.141220E-03                -168.609369459604
                         23        0.147199E-03                -168.609369459477
                         24        0.152385E-03                -168.609369459349
                         25        0.135526E-03                -168.609369459731
                         26        0.995968E-04                -168.609369460658
                         27        0.633930E-04                -168.609369461224
                         28        0.632371E-04                -168.609369461225
                         29        0.635212E-04                -168.609369461223
                         30        0.642137E-04                -168.609369461216
                         31        0.653989E-04                -168.609369461204
                         32        0.417699E-04                -168.609369461411
                         33        0.256644E-04                -168.609369461525
                         34        0.256828E-04                -168.609369461524
                         35        0.256962E-04                -168.609369461524
                         36        0.256774E-04                -168.609369461525
                         37        0.201364E-04                -168.609369461545
                         38        0.476998E-05                -168.609369461586
                         39        0.310842E-05                -168.609369461588
                         40        0.341848E-05                -168.609369461589
                         41        0.356183E-05                -168.609369461589
                         42        0.355652E-05                -168.609369461589
                         43        0.202528E-05                -168.609369461589
                         44        0.174597E-05                -168.609369461589
                         45        0.116317E-05                -168.609369461589
                         46        0.403321E-06                -168.609369461590

 Energy components [Hartree]           Total Energy ::         -168.609369461590
                                        Band Energy ::          -26.567762620586
                                     Kinetic Energy ::           97.301085422278
                                   Potential Energy ::         -265.910454883867
                                      Virial (-V/T) ::            2.732862164177
                                        Core Energy ::         -299.564686084966
                                          XC Energy ::          -16.222411889633
                                     Coulomb Energy ::          147.177728513008
                       Total Pseudopotential Energy ::         -396.952111832974
                       Local Pseudopotential Energy ::         -362.642314965116
                    Nonlocal Pseudopotential Energy ::          -34.309796867858
                                        Confinement ::            0.863403257307

 Orbital energies  State     Spin  L     Occupation   Energy[a.u.]    Energy[eV]

                       1    alpha  0          1.000      -4.162135   -113.257442
                       2    alpha  0          1.000      -0.179736     -4.890876
                       1     beta  0          1.000      -4.152069   -112.983548
                       2     beta  0          1.000      -0.178147     -4.847628

                       1    alpha  1          3.000      -2.568492    -69.892214
                       1     beta  1          3.000      -2.558699    -69.625735

                       1    alpha  2          4.110      -0.318309     -8.661616
                       1     beta  2          3.890      -0.309989     -8.435219


 Total Electron Density at R=0:                                         0.030435

 Spin 1
 Re-scaling the density matrix to get the right number of electrons for spin 1
                  # Electrons              Trace(P)               Scaling factor
                        294.560             294.560                        1.000

 Spin 2
[...]
   120 Broy./Diag. 0.80E-01    1.5     0.02464495     -5417.6209649695 -2.62E-01
   121 Broy./Diag. 0.80E-01    1.5     0.00663648     -5419.3583923313 -1.74E+00
   122 Broy./Diag. 0.80E-01    1.5     0.00777392     -5419.8402231791 -4.82E-01
   123 Broy./Diag. 0.80E-01    1.5     0.00459123     -5419.8618078052 -2.16E-02
   124 Broy./Diag. 0.80E-01    1.5     0.03335916     -5419.4105678642  4.51E-01
   125 Broy./Diag. 0.80E-01    1.5     0.01044083     -5416.0214860096  3.39E+00
   126 Broy./Diag. 0.80E-01    1.5     0.01642098     -5413.7244529952  2.30E+00
   127 Broy./Diag. 0.80E-01    1.5     0.03188162     -5415.9407851476 -2.22E+00
   128 Broy./Diag. 0.80E-01    1.5     0.01495491     -5412.7932705868  3.15E+00
   129 Broy./Diag. 0.80E-01    1.5     0.03045028     -5413.0773250620 -2.84E-01
   130 Broy./Diag. 0.80E-01    1.5     0.01706587     -5416.0077041339 -2.93E+00
   131 Broy./Diag. 0.80E-01    1.5     0.01085092     -5416.5098444499 -5.02E-01
   132 Broy./Diag. 0.80E-01    1.5     0.00643521     -5416.6698064095 -1.60E-01
   133 Broy./Diag. 0.80E-01    1.5     0.00782266     -5418.7654728965 -2.10E+00
   134 Broy./Diag. 0.80E-01    1.5     0.01498631     -5418.7799762739 -1.45E-02
   135 Broy./Diag. 0.80E-01    1.5     0.00966609     -5419.0133301074 -2.33E-01
   136 Broy./Diag. 0.80E-01    1.5     0.02091122     -5419.1544806476 -1.41E-01
   137 Broy./Diag. 0.80E-01    1.5     0.00810113     -5418.7770837442  3.77E-01
   138 Broy./Diag. 0.80E-01    1.5     0.01269841     -5418.4074443852  3.70E-01
   139 Broy./Diag. 0.80E-01    1.5     0.00795483     -5418.1196255501  2.88E-01
   140 Broy./Diag. 0.80E-01    1.5     0.00610312     -5418.7619468956 -6.42E-01
   141 Broy./Diag. 0.80E-01    1.5     0.00422501     -5418.2379078822  5.24E-01
   142 Broy./Diag. 0.80E-01    1.5     0.00455127     -5418.2328418470  5.07E-03
   143 Broy./Diag. 0.80E-01    1.5     0.00731946     -5418.7646505192 -5.32E-01
   144 Broy./Diag. 0.80E-01    1.5     0.00910058     -5418.3216770534  4.43E-01
   145 Broy./Diag. 0.80E-01    1.5     0.00798613     -5418.2939886296  2.77E-02
   146 Broy./Diag. 0.80E-01    1.5     0.00924602     -5417.8327506654  4.61E-01
   147 Broy./Diag. 0.80E-01    1.5     0.02256313     -5419.3775035149 -1.54E+00
   148 Broy./Diag. 0.80E-01    1.5     0.00812111     -5419.6107569076 -2.33E-01
   149 Broy./Diag. 0.80E-01    1.5     0.02629292     -5419.8801307632 -2.69E-01
   150 Broy./Diag. 0.80E-01    1.5     0.00898160     -5419.2114704933  6.69E-01
   151 Broy./Diag. 0.80E-01    1.5     0.00743692     -5418.3645113603  8.47E-01
   152 Broy./Diag. 0.80E-01    1.5     0.00739167     -5415.6505162127  2.71E+00
   153 Broy./Diag. 0.80E-01    1.5     0.00575062     -5416.3504191562 -7.00E-01
   154 Broy./Diag. 0.80E-01    1.5     0.01769581     -5416.6100364295 -2.60E-01
   155 Broy./Diag. 0.80E-01    1.5     0.00632335     -5416.6033980909  6.64E-03
   156 Broy./Diag. 0.80E-01    1.5     0.01476884     -5416.8770009306 -2.74E-01
   157 Broy./Diag. 0.80E-01    1.5     0.01056779     -5416.9991887473 -1.22E-01
   158 Broy./Diag. 0.80E-01    1.5     0.07827274     -5417.3749818214 -3.76E-01
   159 Broy./Diag. 0.80E-01    1.5     0.02512392     -5417.3669956790  7.99E-03
   160 Broy./Diag. 0.80E-01    1.5     0.02368178     -5418.2995595813 -9.33E-01
   161 Broy./Diag. 0.80E-01    1.5     0.04207691     -5418.3544008142 -5.48E-02
   162 Broy./Diag. 0.80E-01    1.5     0.01868233     -5418.0521857051  3.02E-01
   163 Broy./Diag. 0.80E-01    1.5     0.05228312     -5418.4418967638 -3.90E-01
   164 Broy./Diag. 0.80E-01    1.5     0.00422827     -5417.9818103693  4.60E-01
   165 Broy./Diag. 0.80E-01    1.5     0.00954922     -5417.9921262068 -1.03E-02
   166 Broy./Diag. 0.80E-01    1.5     0.03562240     -5418.0010781695 -8.95E-03
   167 Broy./Diag. 0.80E-01    1.5     0.01571552     -5418.4023547384 -4.01E-01
   168 Broy./Diag. 0.80E-01    1.5     0.01222183     -5418.3869865764  1.54E-02
   169 Broy./Diag. 0.80E-01    1.5     0.01883221     -5418.5088586607 -1.22E-01
   170 Broy./Diag. 0.80E-01    1.5     0.01516853     -5418.3123245056  1.97E-01
   171 Broy./Diag. 0.80E-01    1.5     0.04970570     -5418.3303761412 -1.81E-02
   172 Broy./Diag. 0.80E-01    1.5     0.01280783     -5418.3966543444 -6.63E-02
   173 Broy./Diag. 0.80E-01    1.5     0.04456334     -5418.3657909953  3.09E-02
   174 Broy./Diag. 0.80E-01    1.5     0.03038980     -5418.1838428681  1.82E-01
   175 Broy./Diag. 0.80E-01    1.5     0.02591530     -5418.2051152555 -2.13E-02
   176 Broy./Diag. 0.80E-01    1.5     0.00389614     -5418.0375368345  1.68E-01
   177 Broy./Diag. 0.80E-01    1.5     0.04427042     -5418.0517212355 -1.42E-02
   178 Broy./Diag. 0.80E-01    1.5     0.01035612     -5417.9741904799  7.75E-02
   179 Broy./Diag. 0.80E-01    1.5     0.00989919     -5418.0148019737 -4.06E-02
   180 Broy./Diag. 0.80E-01    1.5     0.01815441     -5417.9491164901  6.57E-02
   181 Broy./Diag. 0.80E-01    1.5     0.02111361     -5417.8804486875  6.87E-02
   182 Broy./Diag. 0.80E-01    1.5     0.00661916     -5417.8234282095  5.70E-02
   183 Broy./Diag. 0.80E-01    1.5     0.00165352     -5417.9549284704 -1.32E-01
   184 Broy./Diag. 0.80E-01    1.5     0.00966385     -5418.0191333072 -6.42E-02
   185 Broy./Diag. 0.80E-01    1.5     0.00674478     -5418.0629733402 -4.38E-02
   186 Broy./Diag. 0.80E-01    1.5     0.02122728     -5418.1922526035 -1.29E-01
   187 Broy./Diag. 0.80E-01    1.5     0.00157740     -5417.9852063007  2.07E-01
   188 Broy./Diag. 0.80E-01    1.5     0.02424432     -5417.9343552535  5.09E-02
   189 Broy./Diag. 0.80E-01    1.5     0.00775138     -5417.9234033867  1.10E-02
   190 Broy./Diag. 0.80E-01    1.5     0.01524714     -5417.7040388574  2.19E-01
   191 Broy./Diag. 0.80E-01    1.5     0.00227582     -5417.8392452161 -1.35E-01
   192 Broy./Diag. 0.80E-01    1.5     0.01063596     -5417.9686335600 -1.29E-01
   193 Broy./Diag. 0.80E-01    1.5     0.00555637     -5417.7768562788  1.92E-01
   194 Broy./Diag. 0.80E-01    1.5     0.01547422     -5417.9140911267 -1.37E-01
   195 Broy./Diag. 0.80E-01    1.5     0.01934268     -5417.8208920723  9.32E-02
   196 Broy./Diag. 0.80E-01    1.5     0.03980378     -5417.0105841273  8.10E-01
   197 Broy./Diag. 0.80E-01    1.5     0.01505129     -5418.3396947900 -1.33E+00
   198 Broy./Diag. 0.80E-01    1.5     0.01106895     -5417.9737745364  3.66E-01
   199 Broy./Diag. 0.80E-01    1.5     0.04793610     -5418.1665250690 -1.93E-01
   200 Broy./Diag. 0.80E-01    1.5     0.02965548     -5418.1222888835  4.42E-02
   201 Broy./Diag. 0.80E-01    1.5     0.03670125     -5417.6449961946  4.77E-01
   202 Broy./Diag. 0.80E-01    1.5     0.01770390     -5418.1824151627 -5.37E-01
   203 Broy./Diag. 0.80E-01    1.5     0.02851747     -5417.9987546192  1.84E-01
   204 Broy./Diag. 0.80E-01    1.5     0.00785570     -5417.6417920079  3.57E-01
   205 Broy./Diag. 0.80E-01    1.5     0.03285626     -5417.4542946905  1.87E-01
   206 Broy./Diag. 0.80E-01    1.5     0.00648900     -5417.5429414311 -8.86E-02
   207 Broy./Diag. 0.80E-01    1.5     0.01461722     -5417.8787424590 -3.36E-01
   208 Broy./Diag. 0.80E-01    1.5     0.03551569     -5417.5465523097  3.32E-01
   209 Broy./Diag. 0.80E-01    1.5     0.02823423     -5417.0135485848  5.33E-01
   210 Broy./Diag. 0.80E-01    1.5     0.04084938     -5416.7387195252  2.75E-01
   211 Broy./Diag. 0.80E-01    1.5     0.02295377     -5417.3768715817 -6.38E-01
   212 Broy./Diag. 0.80E-01    1.5     0.02731072     -5417.2879138186  8.90E-02
   213 Broy./Diag. 0.80E-01    1.5     0.06374514     -5417.3186286998 -3.07E-02
   214 Broy./Diag. 0.80E-01    1.5     0.03664230     -5417.9910098245 -6.72E-01
   215 Broy./Diag. 0.80E-01    1.5     0.02675578     -5417.7275204119  2.63E-01
   216 Broy./Diag. 0.80E-01    1.5     0.03885508     -5417.4090805268  3.18E-01
   217 Broy./Diag. 0.80E-01    1.5     0.03767346     -5417.5925252778 -1.83E-01
   218 Broy./Diag. 0.80E-01    1.5     0.03484450     -5418.2561089897 -6.64E-01
   219 Broy./Diag. 0.80E-01    1.5     0.02053624     -5417.5463845428  7.10E-01
   220 Broy./Diag. 0.80E-01    1.5     0.11785422     -5417.5280466559  1.83E-02
   221 Broy./Diag. 0.80E-01    1.5     0.05804394     -5418.6537925800 -1.13E+00
   222 Broy./Diag. 0.80E-01    1.5     0.04765009     -5419.0169835442 -3.63E-01
   223 Broy./Diag. 0.80E-01    1.5     0.08922740     -5418.7405054384  2.76E-01
   224 Broy./Diag. 0.80E-01    1.5     0.01323797     -5418.9013269182 -1.61E-01
   225 Broy./Diag. 0.80E-01    1.5     0.01205415     -5419.0770811985 -1.76E-01
   226 Broy./Diag. 0.80E-01    1.5     0.00434584     -5418.6998028134  3.77E-01
   227 Broy./Diag. 0.80E-01    1.5     0.03940814     -5418.7512850845 -5.15E-02
   228 Broy./Diag. 0.80E-01    1.5     0.04644691     -5418.9936804168 -2.42E-01
   229 Broy./Diag. 0.80E-01    1.5     0.04474988     -5419.4303479283 -4.37E-01
   230 Broy./Diag. 0.80E-01    1.5     0.07903050     -5419.1433175459  2.87E-01
   231 Broy./Diag. 0.80E-01    1.5     0.14440312     -5419.3211506734 -1.78E-01
   232 Broy./Diag. 0.80E-01    1.5     0.02945397     -5418.7727148501  5.48E-01
   233 Broy./Diag. 0.80E-01    1.5     0.00612907     -5419.0706155525 -2.98E-01
   234 Broy./Diag. 0.80E-01    1.5     0.01031459     -5419.0381038125  3.25E-02
   235 Broy./Diag. 0.80E-01    1.5     0.03741380     -5419.1946628640 -1.57E-01
   236 Broy./Diag. 0.80E-01    1.5     0.00684594     -5419.2409149950 -4.63E-02
   237 Broy./Diag. 0.80E-01    1.5     0.02861698     -5419.3679187749 -1.27E-01
   238 Broy./Diag. 0.80E-01    1.5     0.01822578     -5419.5192321091 -1.51E-01
   239 Broy./Diag. 0.80E-01    1.5     0.01307209     -5419.3892743016  1.30E-01
   240 Broy./Diag. 0.80E-01    1.5     0.02087274     -5419.1903589068  1.99E-01
   241 Broy./Diag. 0.80E-01    1.5     0.02717145     -5419.3224330089 -1.32E-01
   242 Broy./Diag. 0.80E-01    1.5     0.03489707     -5419.3274205125 -4.99E-03
   243 Broy./Diag. 0.80E-01    1.5     0.01943374     -5419.0416068999  2.86E-01
   244 Broy./Diag. 0.80E-01    1.5     0.04837183     -5418.9616885827  7.99E-02
   245 Broy./Diag. 0.80E-01    1.5     0.01759315     -5419.2725535708 -3.11E-01
   246 Broy./Diag. 0.80E-01    1.5     0.04635996     -5419.0222590957  2.50E-01
   247 Broy./Diag. 0.80E-01    1.5     0.02237020     -5418.3689259104  6.53E-01
   248 Broy./Diag. 0.80E-01    1.5     0.00514784     -5418.1795208369  1.89E-01
   249 Broy./Diag. 0.80E-01    1.5     0.02051323     -5418.0220473788  1.57E-01
   250 Broy./Diag. 0.80E-01    1.5     0.01140324     -5417.6935163393  3.29E-01
   251 Broy./Diag. 0.80E-01    1.5     0.00108455     -5417.6177580366  7.58E-02
   252 Broy./Diag. 0.80E-01    1.5     0.01401680     -5417.6872383457 -6.95E-02
   253 Broy./Diag. 0.80E-01    1.5     0.00616199     -5417.7897934238 -1.03E-01
   254 Broy./Diag. 0.80E-01    1.5     0.02777133     -5417.7999256720 -1.01E-02
   255 Broy./Diag. 0.80E-01    1.5     0.03465784     -5417.7254956607  7.44E-02
   256 Broy./Diag. 0.80E-01    1.5     0.01839757     -5417.6207987201  1.05E-01
   257 Broy./Diag. 0.80E-01    1.5     0.06430963     -5417.8709349610 -2.50E-01
   258 Broy./Diag. 0.80E-01    1.5     0.02563967     -5417.8775130571 -6.58E-03
   259 Broy./Diag. 0.80E-01    1.5     0.07350088     -5417.8846020687 -7.09E-03
   260 Broy./Diag. 0.80E-01    1.5     0.09697987     -5418.2655237684 -3.81E-01
   261 Broy./Diag. 0.80E-01    1.5     0.02805711     -5417.9180119196  3.48E-01
   262 Broy./Diag. 0.80E-01    1.5     0.02886110     -5418.0668920105 -1.49E-01
   263 Broy./Diag. 0.80E-01    1.5     0.02394594     -5417.7797361175  2.87E-01
   264 Broy./Diag. 0.80E-01    1.5     0.12715818     -5417.7624174487  1.73E-02
   265 Broy./Diag. 0.80E-01    1.5     0.05573604     -5417.6322198907  1.30E-01
   266 Broy./Diag. 0.80E-01    1.5     0.01482423     -5417.5873847508  4.48E-02
   267 Broy./Diag. 0.80E-01    1.5     0.13851926     -5417.9800439536 -3.93E-01
   268 Broy./Diag. 0.80E-01    1.5     0.12980485     -5417.2228026263  7.57E-01
   269 Broy./Diag. 0.80E-01    1.5     0.05974019     -5417.8739536498 -6.51E-01
   270 Broy./Diag. 0.80E-01    1.5     0.05327088     -5417.4128485597  4.61E-01
   271 Broy./Diag. 0.80E-01    1.5     0.11313585     -5417.3363406554  7.65E-02
   272 Broy./Diag. 0.80E-01    1.5     0.01957116     -5416.6048922884  7.31E-01
   273 Broy./Diag. 0.80E-01    1.5     0.17490155     -5416.4175018700  1.87E-01
   274 Broy./Diag. 0.80E-01    1.5     0.05929633     -5417.2952521821 -8.78E-01
   275 Broy./Diag. 0.80E-01    1.5     0.08958731     -5418.0927045523 -7.97E-01
   276 Broy./Diag. 0.80E-01    1.5     0.09573074     -5417.6792302060  4.13E-01
   277 Broy./Diag. 0.80E-01    1.5     0.01677177     -5417.8878048360 -2.09E-01
   278 Broy./Diag. 0.80E-01    1.5     0.04746943     -5418.0350394158 -1.47E-01
   279 Broy./Diag. 0.80E-01    1.5     0.09990358     -5417.9457036822  8.93E-02
   280 Broy./Diag. 0.80E-01    1.5     0.23655907     -5418.0697477036 -1.24E-01
   281 Broy./Diag. 0.80E-01    1.5     0.16797614     -5418.4911059266 -4.21E-01
   282 Broy./Diag. 0.80E-01    1.5     0.04045509     -5418.1495552124  3.42E-01
   283 Broy./Diag. 0.80E-01    1.5     0.30363579     -5418.2127181902 -6.32E-02
   284 Broy./Diag. 0.80E-01    1.5     0.04430104     -5418.0310053442  1.82E-01
   285 Broy./Diag. 0.80E-01    1.5     0.09920483     -5417.9645431426  6.65E-02
   286 Broy./Diag. 0.80E-01    1.5     0.05974092     -5418.5124776372 -5.48E-01
   287 Broy./Diag. 0.80E-01    1.5     0.23021748     -5418.2807416813  2.32E-01
   288 Broy./Diag. 0.80E-01    1.5     0.10437372     -5418.2199973847  6.07E-02
   289 Broy./Diag. 0.80E-01    1.5     0.03542316     -5417.7450242829  4.75E-01
   290 Broy./Diag. 0.80E-01    1.5     0.02670432     -5417.5534298849  1.92E-01
   291 Broy./Diag. 0.80E-01    1.5     0.02899109     -5417.4116990130  1.42E-01
   292 Broy./Diag. 0.80E-01    1.5     0.00816568     -5417.4778128754 -6.61E-02
   293 Broy./Diag. 0.80E-01    1.5     0.08555959     -5417.4914713005 -1.37E-02
   294 Broy./Diag. 0.80E-01    1.5     0.16004513     -5418.0155772177 -5.24E-01
   295 Broy./Diag. 0.80E-01    1.5     0.14050089     -5417.4608561497  5.55E-01
   296 Broy./Diag. 0.80E-01    1.5     0.01131134     -5417.4561514530  4.70E-03
   297 Broy./Diag. 0.80E-01    1.5     0.02882832     -5417.4745416119 -1.84E-02
   298 Broy./Diag. 0.80E-01    1.5     0.02239757     -5417.3744307816  1.00E-01
   299 Broy./Diag. 0.80E-01    1.5     0.22136349     -5417.2482983253  1.26E-01
   300 Broy./Diag. 0.80E-01    1.5     0.09599526     -5416.8585640655  3.90E-01
   301 Broy./Diag. 0.80E-01    1.5     0.04994559     -5417.6990708848 -8.41E-01
   302 Broy./Diag. 0.80E-01    1.5     0.02967547     -5417.5338053629  1.65E-01
   303 Broy./Diag. 0.80E-01    1.5     0.03943500     -5417.4326034415  1.01E-01
   304 Broy./Diag. 0.80E-01    1.5     0.11476953     -5417.4496809881 -1.71E-02
   305 Broy./Diag. 0.80E-01    1.5     0.01260057     -5418.0007980100 -5.51E-01
   306 Broy./Diag. 0.80E-01    1.5     0.13745571     -5417.9966199911  4.18E-03
   307 Broy./Diag. 0.80E-01    1.5     0.10587212     -5417.9109278109  8.57E-02
   308 Broy./Diag. 0.80E-01    1.5     0.05403890     -5417.8559988258  5.49E-02
   309 Broy./Diag. 0.80E-01    1.5     0.02847917     -5417.9313613109 -7.54E-02
   310 Broy./Diag. 0.80E-01    1.5     0.04107304     -5417.8587745642  7.26E-02
   311 Broy./Diag. 0.80E-01    1.5     0.04303533     -5417.9830379267 -1.24E-01
   312 Broy./Diag. 0.80E-01    1.5     0.00875151     -5417.8247996264  1.58E-01
   313 Broy./Diag. 0.80E-01    1.5     0.03126775     -5417.8059959563  1.88E-02
   314 Broy./Diag. 0.80E-01    1.5     0.05407024     -5417.3773376180  4.29E-01
   315 Broy./Diag. 0.80E-01    1.5     0.04370436     -5418.4073878706 -1.03E+00
   316 Broy./Diag. 0.80E-01    1.5     0.10436126     -5417.9632356134  4.44E-01
   317 Broy./Diag. 0.80E-01    1.5     0.09444919     -5417.9149831080  4.83E-02
   318 Broy./Diag. 0.80E-01    1.5     0.05580449     -5418.2967078295 -3.82E-01
   319 Broy./Diag. 0.80E-01    1.5     0.00981659     -5418.1461785100  1.51E-01
   320 Broy./Diag. 0.80E-01    1.5     0.01524583     -5418.2364451815 -9.03E-02
   321 Broy./Diag. 0.80E-01    1.5     0.06423269     -5418.1528895182  8.36E-02
   322 Broy./Diag. 0.80E-01    1.5     0.06785891     -5417.9017210581  2.51E-01
   323 Broy./Diag. 0.80E-01    1.5     0.11783537     -5418.0654202747 -1.64E-01
   324 Broy./Diag. 0.80E-01    1.5     0.24045218     -5418.7033057494 -6.38E-01
   325 Broy./Diag. 0.80E-01    1.5     0.01982779     -5417.2541841928  1.45E+00
   326 Broy./Diag. 0.80E-01    1.5     0.08998025     -5417.0853077356  1.69E-01
   327 Broy./Diag. 0.80E-01    1.5     0.08283729     -5417.2753172760 -1.90E-01
   328 Broy./Diag. 0.80E-01    1.5     0.07968557     -5417.5423841180 -2.67E-01
   329 Broy./Diag. 0.80E-01    1.5     0.02354379     -5417.6945700903 -1.52E-01
   330 Broy./Diag. 0.80E-01    1.5     0.03185236     -5417.8173207490 -1.23E-01
   331 Broy./Diag. 0.80E-01    1.5     0.25767480     -5418.1199779051 -3.03E-01
   332 Broy./Diag. 0.80E-01    1.5     0.19026113     -5418.1075298525  1.24E-02
   333 Broy./Diag. 0.80E-01    1.5     0.19130374     -5416.0097984761  2.10E+00
   334 Broy./Diag. 0.80E-01    1.5     0.10324705     -5416.3492443471 -3.39E-01
   335 Broy./Diag. 0.80E-01    1.5     0.16788348     -5415.4438874377  9.05E-01
   336 Broy./Diag. 0.80E-01    1.5     0.12372967     -5417.0818382628 -1.64E+00
   337 Broy./Diag. 0.80E-01    1.5     0.13642833     -5416.8558160515  2.26E-01
   338 Broy./Diag. 0.80E-01    1.5     0.01328713     -5417.7517538378 -8.96E-01
   339 Broy./Diag. 0.80E-01    1.5     0.11043097     -5417.6367135707  1.15E-01
   340 Broy./Diag. 0.80E-01    1.5     0.06215188     -5417.5829937175  5.37E-02
   341 Broy./Diag. 0.80E-01    1.5     0.07432477     -5414.0459953958  3.54E+00
   342 Broy./Diag. 0.80E-01    1.5     0.04776229     -5416.9669689261 -2.92E+00
   343 Broy./Diag. 0.80E-01    1.5     0.04482909     -5418.0016847690 -1.03E+00
   344 Broy./Diag. 0.80E-01    1.5     0.06366158     -5415.8454124711  2.16E+00
   345 Broy./Diag. 0.80E-01    1.5     0.27570009     -5408.3194797668  7.53E+00
   346 Broy./Diag. 0.80E-01    1.5     0.09750639     -5412.5514646589 -4.23E+00
   347 Broy./Diag. 0.80E-01    1.5     0.11328730     -5415.6261524483 -3.07E+00
   348 Broy./Diag. 0.80E-01    1.5     0.01728913     -5421.8836147018 -6.26E+00
   349 Broy./Diag. 0.80E-01    1.5     0.04509013     -5422.6220517575 -7.38E-01
   350 Broy./Diag. 0.80E-01    1.5     0.03368815     -5421.6028029382  1.02E+00
   351 Broy./Diag. 0.80E-01    1.5     0.06603840     -5421.9361108005 -3.33E-01
   352 Broy./Diag. 0.80E-01    1.5     0.02029962     -5420.3586930361  1.58E+00
   353 Broy./Diag. 0.80E-01    1.5     0.02097345     -5419.8879794150  4.71E-01
   354 Broy./Diag. 0.80E-01    1.5     0.07079501     -5418.8910789009  9.97E-01
   355 Broy./Diag. 0.80E-01    1.5     0.05941520     -5416.9408568577  1.95E+00
   356 Broy./Diag. 0.80E-01    1.5     0.01532162     -5416.5518531175  3.89E-01
   357 Broy./Diag. 0.80E-01    1.5     0.03959907     -5417.7008467224 -1.15E+00
   358 Broy./Diag. 0.80E-01    1.5     0.03602530     -5417.6843879105  1.65E-02
   359 Broy./Diag. 0.80E-01    1.5     0.04822116     -5418.4353606258 -7.51E-01
   360 Broy./Diag. 0.80E-01    1.5     0.07077181     -5419.5723807728 -1.14E+00
   361 Broy./Diag. 0.80E-01    1.5     0.03410739     -5418.3005813236  1.27E+00
   362 Broy./Diag. 0.80E-01    1.5     0.03376219     -5417.6270978551  6.73E-01
   363 Broy./Diag. 0.80E-01    1.5     0.01878970     -5418.5533589200 -9.26E-01
   364 Broy./Diag. 0.80E-01    1.5     0.03477560     -5418.9845403898 -4.31E-01
   365 Broy./Diag. 0.80E-01    1.5     0.03435864     -5418.3669473104  6.18E-01
