 DBCSR| CPU Multiplication driver                                           XSMM
 DBCSR| Multrec recursion limit                                              512
 DBCSR| Multiplication stack size                                           1000
 DBCSR| Maximum elements for images                                    UNLIMITED
 DBCSR| Multiplicative factor virtual images                                   1
 DBCSR| Use multiplication densification                                       T
 DBCSR| Multiplication size stacks                                             3
 DBCSR| Number of 3D layers                                               SINGLE
 DBCSR| Use MPI memory allocation                                              T
 DBCSR| Use RMA algorithm                                                      F
 DBCSR| Use Communication thread                                               T
 DBCSR| Communication thread load                                             87


  **** **** ******  **  PROGRAM STARTED AT               2022-10-13 12:39:06.917
 ***** ** ***  *** **   PROGRAM STARTED ON                         node-c12e-018
 **    ****   ******    PROGRAM STARTED BY                               mmm1169
 ***** **    ** ** **   PROGRAM PROCESS ID                                 63329
  **** **  *******  **  PROGRAM STARTED IN /lustre/scratch/mmm1169/work/other/cp
                                           2k_forum/ni_bulk/aspc-broyden-222-sme
                                           ar-slab/slab_multiplicity-33-alpha-5e
                                           -1-beta-5e-1-scf-1e-3-1e-4-5e-5-1e-5-
                                           1e-6

 CP2K| version string:                                          CP2K version 7.1
 CP2K| source code revision number:                                  git:e635599
 CP2K| cp2kflags: libint fftw3 libxc elpa parallel mpi3 scalapack quip xsmm spgl
 CP2K|            ib
 CP2K| is freely available from                            https://www.cp2k.org/
 CP2K| Program compiled at                          Wed  8 Jan 12:34:35 GMT 2020
 CP2K| Program compiled on                                               login01
 CP2K| Program compiled for                                                local
 CP2K| Data directory path     /shared/ucl/apps/cp2k/7.1/gnu-4.9.2/cp2k-7.1/data
 CP2K| Input file name                                                 input.inp

 GLOBAL| Force Environment number                                              1
 GLOBAL| Basis set file name                                        BASIS_MOLOPT
 GLOBAL| Potential file name                                      GTH_POTENTIALS
 GLOBAL| MM Potential file name                                     MM_POTENTIAL
 GLOBAL| Coordinate file name                                         Ni-222.xyz
 GLOBAL| Method name                                                        CP2K
 GLOBAL| Project name                                                   Bulk_Opt
 GLOBAL| Preferred FFT library                                             FFTW3
 GLOBAL| Preferred diagonalization lib.                                     ELPA
 GLOBAL| Run type                                                         ENERGY
 GLOBAL| All-to-all communication in single precision                          F
 GLOBAL| FFTs using library dependent lengths                                  F
 GLOBAL| Global print level                                               MEDIUM
 GLOBAL| MPI I/O enabled                                                       T
 GLOBAL| Total number of message passing processes                            80
 GLOBAL| Number of threads for this process                                    1
 GLOBAL| This output is from process                                           0
 GLOBAL| CPU model name                 Intel(R) Xeon(R) Gold 6248 CPU @ 2.50GHz
 GLOBAL| CPUID                                                              1003

 MEMORY| system memory details [Kb]
 MEMORY|                        rank 0           min           max       average
 MEMORY| MemTotal            197730152     197730148     197730152     197730150
 MEMORY| MemFree             177913220     177843872     177913220     177878546
 MEMORY| Buffers                     0             0             0             0
 MEMORY| Cached               10925908      10925908      11027596      10976752
 MEMORY| Slab                   737988        737988        786996        762492
 MEMORY| SReclaimable           198272        198272        233896        216084
 MEMORY| MemLikelyFree       189037400     189037400     189105364     189071382


 *** Fundamental physical constants (SI units) ***

 *** Literature: B. J. Mohr and B. N. Taylor,
 ***             CODATA recommended values of the fundamental physical
 ***             constants: 2006, Web Version 5.1
 ***             http://physics.nist.gov/constants

 Speed of light in vacuum [m/s]                             2.99792458000000E+08
 Magnetic constant or permeability of vacuum [N/A**2]       1.25663706143592E-06
 Electric constant or permittivity of vacuum [F/m]          8.85418781762039E-12
 Planck constant (h) [J*s]                                  6.62606896000000E-34
 Planck constant (h-bar) [J*s]                              1.05457162825177E-34
 Elementary charge [C]                                      1.60217648700000E-19
 Electron mass [kg]                                         9.10938215000000E-31
 Electron g factor [ ]                                     -2.00231930436220E+00
 Proton mass [kg]                                           1.67262163700000E-27
 Fine-structure constant                                    7.29735253760000E-03
 Rydberg constant [1/m]                                     1.09737315685270E+07
 Avogadro constant [1/mol]                                  6.02214179000000E+23
 Boltzmann constant [J/K]                                   1.38065040000000E-23
 Atomic mass unit [kg]                                      1.66053878200000E-27
 Bohr radius [m]                                            5.29177208590000E-11

 *** Conversion factors ***

 [u] -> [a.u.]                                              1.82288848426455E+03
 [Angstrom] -> [Bohr] = [a.u.]                              1.88972613288564E+00
 [a.u.] = [Bohr] -> [Angstrom]                              5.29177208590000E-01
 [a.u.] -> [s]                                              2.41888432650478E-17
 [a.u.] -> [fs]                                             2.41888432650478E-02
 [a.u.] -> [J]                                              4.35974393937059E-18
 [a.u.] -> [N]                                              8.23872205491840E-08
 [a.u.] -> [K]                                              3.15774647902944E+05
 [a.u.] -> [kJ/mol]                                         2.62549961709828E+03
 [a.u.] -> [kcal/mol]                                       6.27509468713739E+02
 [a.u.] -> [Pa]                                             2.94210107994716E+13
 [a.u.] -> [bar]                                            2.94210107994716E+08
 [a.u.] -> [atm]                                            2.90362800883016E+08
 [a.u.] -> [eV]                                             2.72113838565563E+01
 [a.u.] -> [Hz]                                             6.57968392072181E+15
 [a.u.] -> [1/cm] (wave numbers)                            2.19474631370540E+05
 [a.u./Bohr**2] -> [1/cm]                                   5.14048714338585E+03
 

 CELL_TOP| Volume [angstrom^3]:                                          983.250
 CELL_TOP| Vector a [angstrom     7.012     0.000     0.000    |a| =       7.012
 CELL_TOP| Vector b [angstrom     0.000     7.012     0.000    |b| =       7.012
 CELL_TOP| Vector c [angstrom     0.000     0.000    20.000    |c| =      20.000
 CELL_TOP| Angle (b,c), alpha [degree]:                                   90.000
 CELL_TOP| Angle (a,c), beta  [degree]:                                   90.000
 CELL_TOP| Angle (a,b), gamma [degree]:                                   90.000
 CELL_TOP| Numerically orthorhombic:                                         YES

 GENERATE|  Preliminary Number of Bonds generated:                             0
 GENERATE|  Achieved consistency in connectivity generation.

 CELL| Volume [angstrom^3]:                                              983.250
 CELL| Vector a [angstrom]:       7.012     0.000     0.000    |a| =       7.012
 CELL| Vector b [angstrom]:       0.000     7.012     0.000    |b| =       7.012
 CELL| Vector c [angstrom]:       0.000     0.000    20.000    |c| =      20.000
 CELL| Angle (b,c), alpha [degree]:                                       90.000
 CELL| Angle (a,c), beta  [degree]:                                       90.000
 CELL| Angle (a,b), gamma [degree]:                                       90.000
 CELL| Numerically orthorhombic:                                             YES

 CELL_REF| Volume [angstrom^3]:                                          983.250
 CELL_REF| Vector a [angstrom     7.012     0.000     0.000    |a| =       7.012
 CELL_REF| Vector b [angstrom     0.000     7.012     0.000    |b| =       7.012
 CELL_REF| Vector c [angstrom     0.000     0.000    20.000    |c| =      20.000
 CELL_REF| Angle (b,c), alpha [degree]:                                   90.000
 CELL_REF| Angle (a,c), beta  [degree]:                                   90.000
 CELL_REF| Angle (a,b), gamma [degree]:                                   90.000
 CELL_REF| Numerically orthorhombic:                                         YES

 *******************************************************************************
 *******************************************************************************
 **                                                                           **
 **     #####                         ##              ##                      **
 **    ##   ##            ##          ##              ##                      **
 **   ##     ##                       ##            ######                    **
 **   ##     ##  ##   ##  ##   #####  ##  ##   ####   ##    #####    #####    **
 **   ##     ##  ##   ##  ##  ##      ## ##   ##      ##   ##   ##  ##   ##   **
 **   ##  ## ##  ##   ##  ##  ##      ####     ###    ##   ######   ######    **
 **    ##  ###   ##   ##  ##  ##      ## ##      ##   ##   ##       ##        **
 **     #######   #####   ##   #####  ##  ##  ####    ##    #####   ##        **
 **           ##                                                    ##        **
 **                                                                           **
 **                                                ... make the atoms dance   **
 **                                                                           **
 **            Copyright (C) by CP2K developers group (2000 - 2019)           **
 **                                                                           **
 *******************************************************************************

 *** WARNING in qs_environment.F:1296 :: More added MOs requested for beta ***
 *** spin than available.                                                  ***


 *** WARNING in qs_environment.F:1310 :: More added MOs requested than ***
 *** available. The full set of unoccupied MOs will be used.           ***


 DFT| Spin unrestricted (spin-polarized) Kohn-Sham calculation               UKS
 DFT| Multiplicity                                                            33
 DFT| Number of spin states                                                    2
 DFT| Charge                                                                   0
 DFT| Self-interaction correction (SIC)                                       NO
 DFT| Cutoffs: density                                              1.000000E-10
 DFT|          gradient                                             1.000000E-10
 DFT|          tau                                                  1.000000E-10
 DFT|          cutoff_smoothing_range                               0.000000E+00
 DFT| XC density smoothing                                                  NONE
 DFT| XC derivatives                                                          PW
 FUNCTIONAL| ROUTINE=NEW
 FUNCTIONAL| PBE:
 FUNCTIONAL| J.P.Perdew, K.Burke, M.Ernzerhof, Phys. Rev. Letter, vol. 77, n 18,
 FUNCTIONAL|  pp. 3865-3868, (1996){spin polarized}                             
 vdW POTENTIAL|                                                   Pair Potential
 vdW POTENTIAL|          DFT-D3 (Version 3.1)
 vdW POTENTIAL|          Potential Form: S. Grimme et al, JCP 132: 154104 (2010)
 vdW POTENTIAL|          Zero Damping
 vdW POTENTIAL|          Cutoff Radius [Bohr]:                             20.00
 vdW POTENTIAL|          s6 Scaling Factor:                               1.0000
 vdW POTENTIAL|          sr6 Scaling Factor:                              1.2170
 vdW POTENTIAL|          s8 Scaling Factor:                               0.7220
 vdW POTENTIAL|          Cutoff for CN calculation:                   0.1000E-05

 QS| Method:                                                                 GPW
 QS| Density plane wave grid type                        NON-SPHERICAL FULLSPACE
 QS| Number of grid levels:                                                    5
 QS| Density cutoff [a.u.]:                                                300.0
 QS| Multi grid cutoff [a.u.]: 1) grid level                               300.0
 QS|                           2) grid level                               100.0
 QS|                           3) grid level                                33.3
 QS|                           4) grid level                                11.1
 QS|                           5) grid level                                 3.7
 QS| Grid level progression factor:                                          3.0
 QS| Relative density cutoff [a.u.]:                                        30.0
 QS| Consistent realspace mapping and integration 
 QS| Interaction thresholds: eps_pgf_orb:                                1.0E-06
 QS|                         eps_filter_matrix:                          0.0E+00
 QS|                         eps_core_charge:                            1.0E-14
 QS|                         eps_rho_gspace:                             1.0E-12
 QS|                         eps_rho_rspace:                             1.0E-12
 QS|                         eps_gvg_rspace:                             1.0E-06
 QS|                         eps_ppl:                                    1.0E-02
 QS|                         eps_ppnl:                                   1.0E-08


 ATOMIC KIND INFORMATION

  1. Atomic kind: Ni                                    Number of atoms:      32

     Orbital Basis Set                                        DZVP-MOLOPT-SR-GTH

       Number of orbital shell sets:                                           1
       Number of orbital shells:                                               8
       Number of primitive Cartesian functions:                                6
       Number of Cartesian basis functions:                                   31
       Number of spherical basis functions:                                   26
       Norm type:                                                              2

       Normalised Cartesian orbitals:

                        Set   Shell   Orbital            Exponent    Coefficient

                          1       1    2s               10.077428      -0.684558
                                                         5.847736      -0.844524
                                                         2.494033       1.088856
                                                         0.988355       0.395503
                                                         0.344978       0.010224
                                                         0.099466      -0.003250

                          1       2    3s               10.077428       0.096747
                                                         5.847736       0.162504
                                                         2.494033      -0.297192
                                                         0.988355      -0.319752
                                                         0.344978       0.088318
                                                         0.099466       0.118587

                          1       3    4s               10.077428       0.036437
                                                         5.847736      -0.381480
                                                         2.494033       0.003759
                                                         0.988355      -1.048256
                                                         0.344978       0.855825
                                                         0.099466      -0.176350

                          1       4    3px              10.077428      -3.133913
                                                         5.847736       3.027656
                                                         2.494033       2.353227
                                                         0.988355       0.554184
                                                         0.344978       0.019462
                                                         0.099466      -0.000291
                          1       4    3py              10.077428      -3.133913
                                                         5.847736       3.027656
                                                         2.494033       2.353227
                                                         0.988355       0.554184
                                                         0.344978       0.019462
                                                         0.099466      -0.000291
                          1       4    3pz              10.077428      -3.133913
                                                         5.847736       3.027656
                                                         2.494033       2.353227
                                                         0.988355       0.554184
                                                         0.344978       0.019462
                                                         0.099466      -0.000291

                          1       5    4px              10.077428      -0.112729
                                                         5.847736      -0.114008
                                                         2.494033      -0.347303
                                                         0.988355      -0.110323
                                                         0.344978       0.154096
                                                         0.099466       0.058386
                          1       5    4py              10.077428      -0.112729
                                                         5.847736      -0.114008
                                                         2.494033      -0.347303
                                                         0.988355      -0.110323
                                                         0.344978       0.154096
                                                         0.099466       0.058386
                          1       5    4pz              10.077428      -0.112729
                                                         5.847736      -0.114008
                                                         2.494033      -0.347303
                                                         0.988355      -0.110323
                                                         0.344978       0.154096
                                                         0.099466       0.058386

                          1       6    4dx2             10.077428       8.232726
                                                         5.847736       9.105758
                                                         2.494033       2.849835
                                                         0.988355       0.554319
                                                         0.344978       0.067245
                                                         0.099466       0.001940
                          1       6    4dxy             10.077428      14.259500
                                                         5.847736      15.771636
                                                         2.494033       4.936060
                                                         0.988355       0.960109
                                                         0.344978       0.116472
                                                         0.099466       0.003360
                          1       6    4dxz             10.077428      14.259500
                                                         5.847736      15.771636
                                                         2.494033       4.936060
                                                         0.988355       0.960109
                                                         0.344978       0.116472
                                                         0.099466       0.003360
                          1       6    4dy2             10.077428       8.232726
                                                         5.847736       9.105758
                                                         2.494033       2.849835
                                                         0.988355       0.554319
                                                         0.344978       0.067245
                                                         0.099466       0.001940
                          1       6    4dyz             10.077428      14.259500
                                                         5.847736      15.771636
                                                         2.494033       4.936060
                                                         0.988355       0.960109
                                                         0.344978       0.116472
                                                         0.099466       0.003360
                          1       6    4dz2             10.077428       8.232726
                                                         5.847736       9.105758
                                                         2.494033       2.849835
                                                         0.988355       0.554319
                                                         0.344978       0.067245
                                                         0.099466       0.001940

                          1       7    5dx2             10.077428      -2.715373
                                                         5.847736      -4.020640
                                                         2.494033      -1.397569
                                                         0.988355      -0.076143
                                                         0.344978       0.033435
                                                         0.099466       0.026032
                          1       7    5dxy             10.077428      -4.703164
                                                         5.847736      -6.963952
                                                         2.494033      -2.420661
                                                         0.988355      -0.131883
                                                         0.344978       0.057911
                                                         0.099466       0.045088
                          1       7    5dxz             10.077428      -4.703164
                                                         5.847736      -6.963952
                                                         2.494033      -2.420661
                                                         0.988355      -0.131883
                                                         0.344978       0.057911
                                                         0.099466       0.045088
                          1       7    5dy2             10.077428      -2.715373
                                                         5.847736      -4.020640
                                                         2.494033      -1.397569
                                                         0.988355      -0.076143
                                                         0.344978       0.033435
                                                         0.099466       0.026032
                          1       7    5dyz             10.077428      -4.703164
                                                         5.847736      -6.963952
                                                         2.494033      -2.420661
                                                         0.988355      -0.131883
                                                         0.344978       0.057911
                                                         0.099466       0.045088
                          1       7    5dz2             10.077428      -2.715373
                                                         5.847736      -4.020640
                                                         2.494033      -1.397569
                                                         0.988355      -0.076143
                                                         0.344978       0.033435
                                                         0.099466       0.026032

                          1       8    5fx3             10.077428      -0.467694
                                                         5.847736       0.618100
                                                         2.494033       0.066069
                                                         0.988355       0.262898
                                                         0.344978       0.004720
                                                         0.099466       0.007748
                          1       8    5fx2y            10.077428      -1.045795
                                                         5.847736       1.382114
                                                         2.494033       0.147734
                                                         0.988355       0.587859
                                                         0.344978       0.010555
                                                         0.099466       0.017325
                          1       8    5fx2z            10.077428      -1.045795
                                                         5.847736       1.382114
                                                         2.494033       0.147734
                                                         0.988355       0.587859
                                                         0.344978       0.010555
                                                         0.099466       0.017325
                          1       8    5fxy2            10.077428      -1.045795
                                                         5.847736       1.382114
                                                         2.494033       0.147734
                                                         0.988355       0.587859
                                                         0.344978       0.010555
                                                         0.099466       0.017325
                          1       8    5fxyz            10.077428      -1.811371
                                                         5.847736       2.393892
                                                         2.494033       0.255883
                                                         0.988355       1.018201
                                                         0.344978       0.018282
                                                         0.099466       0.030008
                          1       8    5fxz2            10.077428      -1.045795
                                                         5.847736       1.382114
                                                         2.494033       0.147734
                                                         0.988355       0.587859
                                                         0.344978       0.010555
                                                         0.099466       0.017325
                          1       8    5fy3             10.077428      -0.467694
                                                         5.847736       0.618100
                                                         2.494033       0.066069
                                                         0.988355       0.262898
                                                         0.344978       0.004720
                                                         0.099466       0.007748
                          1       8    5fy2z            10.077428      -1.045795
                                                         5.847736       1.382114
                                                         2.494033       0.147734
                                                         0.988355       0.587859
                                                         0.344978       0.010555
                                                         0.099466       0.017325
                          1       8    5fyz2            10.077428      -1.045795
                                                         5.847736       1.382114
                                                         2.494033       0.147734
                                                         0.988355       0.587859
                                                         0.344978       0.010555
                                                         0.099466       0.017325
                          1       8    5fz3             10.077428      -0.467694
                                                         5.847736       0.618100
                                                         2.494033       0.066069
                                                         0.988355       0.262898
                                                         0.344978       0.004720
                                                         0.099466       0.007748

     GTH Potential information for                                       GTH-PBE

       Description:                       Goedecker-Teter-Hutter pseudopotential
                                           Goedecker et al., PRB 54, 1703 (1996)
                                          Hartwigsen et al., PRB 58, 3641 (1998)
                                                      Krack, TCA 114, 145 (2005)

       Gaussian exponent of the core charge distribution:               4.081633
       Electronic configuration (s p d ...):                           4   6   8

       Parameters of the local part of the GTH pseudopotential:

                          rloc        C1          C2          C3          C4
                        0.350000    2.102166    0.648484

       Parameters of the non-local part of the GTH pseudopotential:

                   l      r(l)      h(i,j,l)

                   0    0.261295    0.622658    9.970227
                                    9.970227  -12.871507
                   1    0.224253  -11.142708   12.429566
                                   12.429566  -14.706861
                   2    0.215348  -12.628146


 MOLECULE KIND INFORMATION


 All atoms are their own molecule, skipping detailed information


 TOTAL NUMBERS AND MAXIMUM NUMBERS

  Total number of            - Atomic kinds:                                   1
                             - Atoms:                                         32
                             - Shell sets:                                    32
                             - Shells:                                       256
                             - Primitive Cartesian functions:                192
                             - Cartesian basis functions:                    992
                             - Spherical basis functions:                    832

  Maximum angular momentum of- Orbital basis functions:                        3
                             - Local part of the GTH pseudopotential:          2
                             - Non-local part of the GTH pseudopotential:      3


 MODULE QUICKSTEP:  ATOMIC COORDINATES IN angstrom

  Atom  Kind  Element       X           Y           Z          Z(eff)       Mass

       1     1 Ni  28    0.000000    0.000000    0.000000     18.00      58.6934
       2     1 Ni  28    0.000000    1.752900    1.752900     18.00      58.6934
       3     1 Ni  28    1.752900    0.000000    1.752900     18.00      58.6934
       4     1 Ni  28    1.752900    1.752900    0.000000     18.00      58.6934
       5     1 Ni  28    3.505798    0.000000    0.000000     18.00      58.6934
       6     1 Ni  28    3.505798    1.752900    1.752900     18.00      58.6934
       7     1 Ni  28    5.258698    0.000000    1.752900     18.00      58.6934
       8     1 Ni  28    5.258698    1.752900    0.000000     18.00      58.6934
       9     1 Ni  28    0.000000    3.505798    0.000000     18.00      58.6934
      10     1 Ni  28    0.000000    5.258698    1.752900     18.00      58.6934
      11     1 Ni  28    1.752900    3.505798    1.752900     18.00      58.6934
      12     1 Ni  28    1.752900    5.258698    0.000000     18.00      58.6934
      13     1 Ni  28    3.505798    3.505798    0.000000     18.00      58.6934
      14     1 Ni  28    3.505798    5.258698    1.752900     18.00      58.6934
      15     1 Ni  28    5.258698    3.505798    1.752900     18.00      58.6934
      16     1 Ni  28    5.258698    5.258698    0.000000     18.00      58.6934
      17     1 Ni  28    0.000000    0.000000    3.505798     18.00      58.6934
      18     1 Ni  28    0.000000    1.752900    5.258698     18.00      58.6934
      19     1 Ni  28    1.752900    0.000000    5.258698     18.00      58.6934
      20     1 Ni  28    1.752900    1.752900    3.505798     18.00      58.6934
      21     1 Ni  28    3.505798    0.000000    3.505798     18.00      58.6934
      22     1 Ni  28    3.505798    1.752900    5.258698     18.00      58.6934
      23     1 Ni  28    5.258698    0.000000    5.258698     18.00      58.6934
      24     1 Ni  28    5.258698    1.752900    3.505798     18.00      58.6934
      25     1 Ni  28    0.000000    3.505798    3.505798     18.00      58.6934
      26     1 Ni  28    0.000000    5.258698    5.258698     18.00      58.6934
      27     1 Ni  28    1.752900    3.505798    5.258698     18.00      58.6934
      28     1 Ni  28    1.752900    5.258698    3.505798     18.00      58.6934
      29     1 Ni  28    3.505798    3.505798    3.505798     18.00      58.6934
      30     1 Ni  28    3.505798    5.258698    5.258698     18.00      58.6934
      31     1 Ni  28    5.258698    3.505798    5.258698     18.00      58.6934
      32     1 Ni  28    5.258698    5.258698    3.505798     18.00      58.6934




 SCF PARAMETERS         Density guess:                                   RESTART
                        --------------------------------------------------------
                        max_scf:                                             500
                        max_scf_history:                                       0
                        max_diis:                                             10
                        --------------------------------------------------------
                        eps_scf:                                        1.00E-06
                        eps_scf_history:                                0.00E+00
                        eps_diis:                                       1.00E-01
                        eps_eigval:                                     1.00E-05
                        --------------------------------------------------------
                        level_shift [a.u.]:                                 0.00
                        added MOs                                       528  560
                        --------------------------------------------------------
                        Mixing method:                            BROYDEN_MIXING
                                                charge density mixing in g-space
                        --------------------------------------------------------
                        Smear method:                                FERMI_DIRAC
                        Electronic temperature [K]:                        500.0
                        Electronic temperature [a.u.]:                  1.58E-03
                        Accuracy threshold:                             1.00E-10
                        --------------------------------------------------------
                        No outer SCF

 PW_GRID| Information for grid number                                          1
 PW_GRID| Grid distributed over                                    80 processors
 PW_GRID| Real space group dimensions                                    80    1
 PW_GRID| the grid is blocked:                                                NO
 PW_GRID| Cutoff [a.u.]                                                    300.0
 PW_GRID| spherical cutoff:                                                   NO
 PW_GRID|   Bounds   1            -54      53                Points:         108
 PW_GRID|   Bounds   2            -54      53                Points:         108
 PW_GRID|   Bounds   3           -150     149                Points:         300
 PW_GRID| Volume element (a.u.^3)  0.1896E-02     Volume (a.u.^3)      6635.2971
 PW_GRID| Grid span                                                    FULLSPACE
 PW_GRID|   Distribution                         Average         Max         Min
 PW_GRID|   G-Vectors                            43740.0       43740       43740
 PW_GRID|   G-Rays                                 405.0         405         405
 PW_GRID|   Real Space Points                    43740.0       64800       32400

 PW_GRID| Information for grid number                                          2
 PW_GRID| Number of the reference grid                                         1
 PW_GRID| Grid distributed over                                    80 processors
 PW_GRID| Real space group dimensions                                     8   10
 PW_GRID| the grid is blocked:                                                NO
 PW_GRID| Cutoff [a.u.]                                                    100.0
 PW_GRID| spherical cutoff:                                                   NO
 PW_GRID|   Bounds   1            -30      29                Points:          60
 PW_GRID|   Bounds   2            -30      29                Points:          60
 PW_GRID|   Bounds   3            -90      89                Points:         180
 PW_GRID| Volume element (a.u.^3)  0.1024E-01     Volume (a.u.^3)      6635.2971
 PW_GRID| Grid span                                                    FULLSPACE
 PW_GRID|   Distribution                         Average         Max         Min
 PW_GRID|   G-Vectors                             8100.0        8340        7740
 PW_GRID|   G-Rays                                 135.0         139         129
 PW_GRID|   Real Space Points                     8100.0        8640        7560

 PW_GRID| Information for grid number                                          3
 PW_GRID| Number of the reference grid                                         1
 PW_GRID| Grid distributed over                                    80 processors
 PW_GRID| Real space group dimensions                                     8   10
 PW_GRID| the grid is blocked:                                                NO
 PW_GRID| Cutoff [a.u.]                                                     33.3
 PW_GRID| spherical cutoff:                                                   NO
 PW_GRID|   Bounds   1            -18      17                Points:          36
 PW_GRID|   Bounds   2            -18      17                Points:          36
 PW_GRID|   Bounds   3            -50      49                Points:         100
 PW_GRID| Volume element (a.u.^3)  0.5120E-01     Volume (a.u.^3)      6635.2971
 PW_GRID| Grid span                                                    FULLSPACE
 PW_GRID|   Distribution                         Average         Max         Min
 PW_GRID|   G-Vectors                             1620.0        1836        1296
 PW_GRID|   G-Rays                                  45.0          51          36
 PW_GRID|   Real Space Points                     1620.0        2000        1200

 PW_GRID| Information for grid number                                          4
 PW_GRID| Number of the reference grid                                         1
 PW_GRID| Grid distributed over                                    80 processors
 PW_GRID| Real space group dimensions                                     8   10
 PW_GRID| the grid is blocked:                                                NO
 PW_GRID| Cutoff [a.u.]                                                     11.1
 PW_GRID| spherical cutoff:                                                   NO
 PW_GRID|   Bounds   1            -10       9                Points:          20
 PW_GRID|   Bounds   2            -10       9                Points:          20
 PW_GRID|   Bounds   3            -30      29                Points:          60
 PW_GRID| Volume element (a.u.^3)  0.2765         Volume (a.u.^3)      6635.2971
 PW_GRID| Grid span                                                    FULLSPACE
 PW_GRID|   Distribution                         Average         Max         Min
 PW_GRID|   G-Vectors                              300.0         380         140
 PW_GRID|   G-Rays                                  15.0          19           7
 PW_GRID|   Real Space Points                      300.0         360         240

 PW_GRID| Information for grid number                                          5
 PW_GRID| Number of the reference grid                                         1
 PW_GRID| Grid distributed over                                    80 processors
 PW_GRID| Real space group dimensions                                     8   10
 PW_GRID| the grid is blocked:                                                NO
 PW_GRID| Cutoff [a.u.]                                                      3.7
 PW_GRID| spherical cutoff:                                                   NO
 PW_GRID|   Bounds   1             -6       5                Points:          12
 PW_GRID|   Bounds   2             -6       5                Points:          12
 PW_GRID|   Bounds   3            -18      17                Points:          36
 PW_GRID| Volume element (a.u.^3)   1.280         Volume (a.u.^3)      6635.2971
 PW_GRID| Grid span                                                    FULLSPACE
 PW_GRID|   Distribution                         Average         Max         Min
 PW_GRID|   G-Vectors                               64.8         108          36
 PW_GRID|   G-Rays                                   5.4           9           3
 PW_GRID|   Real Space Points                       64.8         144          36

 POISSON| Solver                                                        PERIODIC
 POISSON| Periodicity                                                        XYZ

 RS_GRID| Information for grid number                                          1
 RS_GRID|   Bounds   1            -54      53                Points:         108
 RS_GRID|   Bounds   2            -54      53                Points:         108
 RS_GRID|   Bounds   3           -150     149                Points:         300
 RS_GRID| Real space distribution over                                  5 groups
 RS_GRID| Real space distribution along direction                              2
 RS_GRID| Border size                                                         28
 RS_GRID| Real space distribution over                                 16 groups
 RS_GRID| Real space distribution along direction                              3
 RS_GRID| Border size                                                         28
 RS_GRID|   Distribution                         Average         Max         Min
 RS_GRID|   Planes                                  77.6          78          77
 RS_GRID|   Distribution                         Average         Max         Min
 RS_GRID|   Planes                                  74.8          75          74

 RS_GRID| Information for grid number                                          2
 RS_GRID|   Bounds   1            -30      29                Points:          60
 RS_GRID|   Bounds   2            -30      29                Points:          60
 RS_GRID|   Bounds   3            -90      89                Points:         180
 RS_GRID| Real space distribution over                                  5 groups
 RS_GRID| Real space distribution along direction                              2
 RS_GRID| Border size                                                         28
 RS_GRID| Real space distribution over                                 16 groups
 RS_GRID| Real space distribution along direction                              3
 RS_GRID| Border size                                                         28
 RS_GRID|   Distribution                         Average         Max         Min
 RS_GRID|   Planes                                  68.0          68          68
 RS_GRID|   Distribution                         Average         Max         Min
 RS_GRID|   Planes                                  67.2          68          67

 RS_GRID| Information for grid number                                          3
 RS_GRID|   Bounds   1            -18      17                Points:          36
 RS_GRID|   Bounds   2            -18      17                Points:          36
 RS_GRID|   Bounds   3            -50      49                Points:         100
 RS_GRID| Real space fully replicated
 RS_GRID| Group size                                                           1

 RS_GRID| Information for grid number                                          4
 RS_GRID|   Bounds   1            -10       9                Points:          20
 RS_GRID|   Bounds   2            -10       9                Points:          20
 RS_GRID|   Bounds   3            -30      29                Points:          60
 RS_GRID| Real space fully replicated
 RS_GRID| Group size                                                           1

 RS_GRID| Information for grid number                                          5
 RS_GRID|   Bounds   1             -6       5                Points:          12
 RS_GRID|   Bounds   2             -6       5                Points:          12
 RS_GRID|   Bounds   3            -18      17                Points:          36
 RS_GRID| Real space fully replicated
 RS_GRID| Group size                                                           1

 Spin 1

 Number of electrons:                                                        304
 Number of occupied orbitals:                                                304
 Number of molecular orbitals:                                               832

 Spin 2

 Number of electrons:                                                        272
 Number of occupied orbitals:                                                272
 Number of molecular orbitals:                                               832

 Number of orbital functions:                                                832
 Number of independent orbital functions:                                    832

 Extrapolation method: initial_guess


 SCF WAVEFUNCTION OPTIMIZATION

  Step     Update method      Time    Convergence         Total energy    Change
  ------------------------------------------------------------------------------
     1 NoMix/Diag. 0.50E+00    0.5     0.00039001     -5417.6143204657 -5.42E+03
     2 Broy./Diag. 0.50E+00    0.7     0.00634974     -5417.6262912720 -1.20E-02
     3 Broy./Diag. 0.50E+00    0.7     0.00617517     -5417.6178541487  8.44E-03
     4 Broy./Diag. 0.50E+00    0.7     0.00571771     -5417.6194211535 -1.57E-03
     5 Broy./Diag. 0.50E+00    0.7     0.00480567     -5417.6279509833 -8.53E-03
     6 Broy./Diag. 0.50E+00    0.7     0.00362440     -5417.6323159411 -4.36E-03
     7 Broy./Diag. 0.50E+00    0.7     0.00369731     -5417.6209149484  1.14E-02
     8 Broy./Diag. 0.50E+00    0.7     0.00225164     -5417.6121026919  8.81E-03
     9 Broy./Diag. 0.50E+00    0.7     0.00158746     -5417.6199286626 -7.83E-03
    10 Broy./Diag. 0.50E+00    0.7     0.00114590     -5417.6402462879 -2.03E-02
    11 Broy./Diag. 0.50E+00    0.7     0.00083652     -5417.6339999633  6.25E-03
    12 Broy./Diag. 0.50E+00    0.7     0.00090521     -5417.6106702574  2.33E-02
    13 Broy./Diag. 0.50E+00    0.7     0.00079186     -5417.6086468918  2.02E-03
    14 Broy./Diag. 0.50E+00    0.7     0.00069866     -5417.6269928190 -1.83E-02
    15 Broy./Diag. 0.50E+00    0.7     0.00069012     -5417.6404775683 -1.35E-02
    16 Broy./Diag. 0.50E+00    0.7     0.00062373     -5417.6342380817  6.24E-03
    17 Broy./Diag. 0.50E+00    0.7     0.00033157     -5417.6155264737  1.87E-02
    18 Broy./Diag. 0.50E+00    0.7     0.00032668     -5417.6161461237 -6.20E-04
    19 Broy./Diag. 0.50E+00    0.7     0.00026030     -5417.6278218997 -1.17E-02
    20 Broy./Diag. 0.50E+00    0.7     0.00019156     -5417.6282302881 -4.08E-04
    21 Broy./Diag. 0.50E+00    0.7     0.00024683     -5417.6244503667  3.78E-03
    22 Broy./Diag. 0.50E+00    0.7     0.00020809     -5417.6221284121  2.32E-03
    23 Broy./Diag. 0.50E+00    0.7     0.00010571     -5417.6234687011 -1.34E-03
    24 Broy./Diag. 0.50E+00    0.7     0.00009752     -5417.6261928829 -2.72E-03
    25 Broy./Diag. 0.50E+00    0.7     0.00007024     -5417.6256216906  5.71E-04
    26 Broy./Diag. 0.50E+00    0.7     0.00005386     -5417.6239056099  1.72E-03
    27 Broy./Diag. 0.50E+00    0.7     0.00005280     -5417.6230411219  8.64E-04
    28 Broy./Diag. 0.50E+00    0.7     0.00005373     -5417.6241887510 -1.15E-03
    29 Broy./Diag. 0.50E+00    0.7     0.00003243     -5417.6252288786 -1.04E-03
    30 Broy./Diag. 0.50E+00    0.7     0.00002989     -5417.6251182938  1.11E-04
    31 Broy./Diag. 0.50E+00    0.7     0.00002014     -5417.6238511842  1.27E-03
    32 Broy./Diag. 0.50E+00    0.7     0.00002294     -5417.6239038021 -5.26E-05
    33 Broy./Diag. 0.50E+00    0.7     0.00002791     -5417.6244213364 -5.18E-04
    34 Broy./Diag. 0.50E+00    0.7     0.00002077     -5417.6246683575 -2.47E-04
    35 Broy./Diag. 0.50E+00    0.7     0.00001399     -5417.6246165769  5.18E-05
    36 Broy./Diag. 0.50E+00    0.7     0.00001075     -5417.6242125985  4.04E-04
    37 Broy./Diag. 0.50E+00    0.7     0.00001043     -5417.6242369896 -2.44E-05
    38 Broy./Diag. 0.50E+00    0.7     0.00001009     -5417.6244263315 -1.89E-04
    39 Broy./Diag. 0.50E+00    0.7     0.00001109     -5417.6245260208 -9.97E-05
    40 Broy./Diag. 0.50E+00    0.7     0.00000777     -5417.6244894235  3.66E-05
    41 Broy./Diag. 0.50E+00    0.7     0.00000528     -5417.6243789480  1.10E-04
    42 Broy./Diag. 0.50E+00    0.7     0.00000406     -5417.6242912230  8.77E-05
    43 Broy./Diag. 0.50E+00    0.7     0.00000461     -5417.6244766180 -1.85E-04
    44 Broy./Diag. 0.50E+00    0.7     0.00000210     -5417.6244626554  1.40E-05
    45 Broy./Diag. 0.50E+00    0.7     0.00000175     -5417.6243869263  7.57E-05
    46 Broy./Diag. 0.50E+00    0.8     0.00000141     -5417.6243506708  3.63E-05
    47 Broy./Diag. 0.50E+00    0.7     0.00000137     -5417.6243777802 -2.71E-05
    48 Broy./Diag. 0.50E+00    0.7     0.00000178     -5417.6244259669 -4.82E-05
    49 Broy./Diag. 0.50E+00    0.7     0.00000149     -5417.6243941425  3.18E-05
    50 Broy./Diag. 0.50E+00    0.7     0.00000135     -5417.6244004882 -6.35E-06
    51 Broy./Diag. 0.50E+00    0.7     0.00000111     -5417.6243958769  4.61E-06
    52 Broy./Diag. 0.50E+00    0.8     0.00000081     -5417.6243916904  4.19E-06

  *** SCF run converged in    52 steps ***


  Electronic density on regular grids:       -575.9999999998        0.0000000002
  Core density on regular grids:              575.9999999999       -0.0000000001
  Total charge density on r-space grids:        0.0000000001
  Total charge density g-space grids:           0.0000000001

  Overlap energy of the core charge distribution:               0.00000000000000
  Self energy of the core charge distribution:              -8356.45371746162709
  Core Hamiltonian energy:                                   2339.47859540256832
  Hartree energy:                                            1141.33353709864514
  Exchange-correlation energy:                               -541.66550010855599
  Dispersion energy:                                           -0.30723620210815
  Electronic entropic energy:                                  -0.01007041575007
  Fermi energy:                                                 0.06210844387155

  Total energy:                                             -5417.62439169042227

  Integrated absolute spin density  :                              26.0280501493
  WARNING: S**2 computation does not yet treat fractional occupied orbitals

 The sum of alpha and beta density is written in cube file format to the file:

 Bulk_Opt-ELECTRON_DENSITY-1_0.cube

 The spin density is written in cube file format to the file:

 Bulk_Opt-SPIN_DENSITY-1_0.cube

 !-----------------------------------------------------------------------------!
                     Mulliken Population Analysis

 #  Atom  Element  Kind  Atomic population (alpha,beta) Net charge  Spin moment
       1     Ni       1         9.357171     8.607299     0.035530     0.749872
       2     Ni       1         9.356192     8.679319    -0.035511     0.676873
       3     Ni       1         9.356192     8.679319    -0.035511     0.676874
       4     Ni       1         9.357171     8.607297     0.035531     0.749874
       5     Ni       1         9.357171     8.607297     0.035532     0.749874
       6     Ni       1         9.356192     8.679319    -0.035511     0.676873
       7     Ni       1         9.356193     8.679318    -0.035511     0.676875
       8     Ni       1         9.357172     8.607297     0.035532     0.749875
       9     Ni       1         9.357171     8.607298     0.035531     0.749873
      10     Ni       1         9.356193     8.679318    -0.035511     0.676874
      11     Ni       1         9.356192     8.679319    -0.035511     0.676873
      12     Ni       1         9.357171     8.607296     0.035533     0.749875
      13     Ni       1         9.357171     8.607298     0.035531     0.749873
      14     Ni       1         9.356192     8.679319    -0.035512     0.676873
      15     Ni       1         9.356193     8.679319    -0.035511     0.676874
      16     Ni       1         9.357172     8.607297     0.035531     0.749875
      17     Ni       1         9.356206     8.679306    -0.035513     0.676900
      18     Ni       1         9.357203     8.607305     0.035492     0.749898
      19     Ni       1         9.357203     8.607306     0.035491     0.749897
      20     Ni       1         9.356206     8.679307    -0.035513     0.676899
      21     Ni       1         9.356206     8.679307    -0.035513     0.676900
      22     Ni       1         9.357203     8.607304     0.035493     0.749899
      23     Ni       1         9.357203     8.607304     0.035494     0.749899
      24     Ni       1         9.356206     8.679306    -0.035512     0.676900
      25     Ni       1         9.356206     8.679307    -0.035513     0.676900
      26     Ni       1         9.357203     8.607303     0.035494     0.749900
      27     Ni       1         9.357203     8.607305     0.035492     0.749898
      28     Ni       1         9.356206     8.679307    -0.035513     0.676899
      29     Ni       1         9.356206     8.679306    -0.035513     0.676900
      30     Ni       1         9.357203     8.607304     0.035493     0.749899
      31     Ni       1         9.357203     8.607304     0.035493     0.749899
      32     Ni       1         9.356206     8.679307    -0.035513     0.676899
 # Total charge and spin      299.414182   276.585818    -0.000000    22.828365

 !-----------------------------------------------------------------------------!

 !-----------------------------------------------------------------------------!
                           Hirshfeld Charges

  #Atom  Element  Kind  Ref Charge     Population       Spin moment  Net charge
      1       Ni     1      18.000    9.375   8.628            0.746     -0.003
      2       Ni     1      18.000    9.339   8.658            0.680      0.003
      3       Ni     1      18.000    9.339   8.658            0.680      0.003
      4       Ni     1      18.000    9.375   8.628            0.746     -0.003
      5       Ni     1      18.000    9.375   8.628            0.746     -0.003
      6       Ni     1      18.000    9.339   8.658            0.680      0.003
      7       Ni     1      18.000    9.339   8.658            0.680      0.003
      8       Ni     1      18.000    9.375   8.628            0.746     -0.003
      9       Ni     1      18.000    9.375   8.628            0.746     -0.003
     10       Ni     1      18.000    9.339   8.658            0.680      0.003
     11       Ni     1      18.000    9.339   8.658            0.680      0.003
     12       Ni     1      18.000    9.375   8.628            0.746     -0.003
     13       Ni     1      18.000    9.375   8.628            0.746     -0.003
     14       Ni     1      18.000    9.339   8.658            0.680      0.003
     15       Ni     1      18.000    9.339   8.658            0.680      0.003
     16       Ni     1      18.000    9.375   8.628            0.746     -0.003
     17       Ni     1      18.000    9.339   8.658            0.680      0.003
     18       Ni     1      18.000    9.375   8.628            0.746     -0.003
     19       Ni     1      18.000    9.375   8.628            0.746     -0.003
     20       Ni     1      18.000    9.339   8.658            0.680      0.003
     21       Ni     1      18.000    9.339   8.658            0.680      0.003
     22       Ni     1      18.000    9.375   8.628            0.746     -0.003
     23       Ni     1      18.000    9.375   8.628            0.746     -0.003
     24       Ni     1      18.000    9.339   8.658            0.680      0.003
     25       Ni     1      18.000    9.339   8.658            0.680      0.003
     26       Ni     1      18.000    9.375   8.628            0.746     -0.003
     27       Ni     1      18.000    9.375   8.628            0.746     -0.003
     28       Ni     1      18.000    9.339   8.658            0.680      0.003
     29       Ni     1      18.000    9.339   8.658            0.680      0.003
     30       Ni     1      18.000    9.375   8.628            0.746     -0.003
     31       Ni     1      18.000    9.375   8.628            0.746     -0.003
     32       Ni     1      18.000    9.339   8.658            0.680      0.003

  Total Charge                                                           -0.000
 !-----------------------------------------------------------------------------!

 ENERGY| Total FORCE_EVAL ( QS ) energy (a.u.):            -5417.624391690422271


 -------------------------------------------------------------------------------
 -                                                                             -
 -                                DBCSR STATISTICS                             -
 -                                                                             -
 -------------------------------------------------------------------------------
 COUNTER                                    TOTAL       BLAS       SMM       ACC
 flops    26 x    32 x    26           2303721472       0.0%    100.0%      0.0%
 flops    26 x    26 x    64          29056794624       0.0%    100.0%      0.0%
 flops    26 x    26 x    32          33899593728       0.0%    100.0%      0.0%
 flops inhomo. stacks                           0       0.0%      0.0%      0.0%
 flops total                        65.260110E+09       0.0%    100.0%      0.0%
 flops max/rank                      1.577752E+09       0.0%    100.0%      0.0%
 matmuls inhomo. stacks                         0       0.0%      0.0%      0.0%
 matmuls total                            1172608       0.0%    100.0%      0.0%
 number of processed stacks                172800       0.0%    100.0%      0.0%
 average stack size                                     0.0       6.8       0.0
 marketing flops                    47.209644E+09
 -------------------------------------------------------------------------------
 # multiplications                            108
 max memory usage/rank             246.837248E+06
 # max total images/rank                        5
 # max 3D layers                                1
 # MPI messages exchanged                  293760
 MPI messages size (bytes):
  total size                        13.157794E+09
  min size                           6.656000E+03
  max size                         133.120000E+03
  average size                      44.790965E+03
 MPI breakdown and total messages size (bytes):
             size <=      128                   0                        0
       128 < size <=     8192               36288                241532928
      8192 < size <=    32768               93616               1562575872
     32768 < size <=   131072              151772               9745062912
    131072 < size <=  4194304               12084               1608622080
   4194304 < size <= 16777216                   0                        0
  16777216 < size                               0                        0
 -------------------------------------------------------------------------------

 *** WARNING in dbcsr_mm.F:295 :: Using a non-square number of MPI ranks ***
 *** might lead to poor performance. Used ranks: 80 Suggested: 81 169    ***

 -------------------------------------------------------------------------------
 -                                                                             -
 -                      DBCSR MESSAGE PASSING PERFORMANCE                      -
 -                                                                             -
 -------------------------------------------------------------------------------
 ROUTINE             CALLS      AVE VOLUME [Bytes]
 MP_Group              108
 MP_Bcast                4                     12.
 MP_Allreduce          769                      8.
 MP_Alltoall          2998                  50179.
 MP_Wait             12096
 MP_ISend             8640                  21218.
 MP_IRecv             8640                  20084.
 MP_Memory           19476
 -------------------------------------------------------------------------------

 MEMORY| Estimated peak process memory [MiB]                                 239

 -------------------------------------------------------------------------------
 ----                             MULTIGRID INFO                            ----
 -------------------------------------------------------------------------------
 count for grid        1:         606432          cutoff [a.u.]          300.00
 count for grid        2:         190256          cutoff [a.u.]          100.00
 count for grid        3:         145104          cutoff [a.u.]           33.33
 count for grid        4:          35568          cutoff [a.u.]           11.11
 count for grid        5:           3200          cutoff [a.u.]            3.70
 total gridlevel count  :         980560

 -------------------------------------------------------------------------------
 -                                                                             -
 -                         MESSAGE PASSING PERFORMANCE                         -
 -                                                                             -
 -------------------------------------------------------------------------------

 ROUTINE             CALLS      AVE VOLUME [Bytes]
 MP_Group                5
 MP_Bcast             1882                 104973.
 MP_Allreduce          978                    688.
 MP_Sync               425
 MP_Alltoall          2900                1957878.
 MP_ISendRecv        49770                   6677.
 MP_Wait             77442
 MP_ISend            31978                  47823.
 MP_IRecv            31936                  47879.
 MP_Recv               150                 212992.
 MP_Write_All            2                 106650.
 -------------------------------------------------------------------------------


 -------------------------------------------------------------------------------
 -                                                                             -
 -                           R E F E R E N C E S                               -
 -                                                                             -
 -------------------------------------------------------------------------------
 
 CP2K version 7.1, the CP2K developers group (2019).
 CP2K is freely available from https://www.cp2k.org/ .

 Schuett, Ole; Messmer, Peter; Hutter, Juerg; VandeVondele, Joost. 
 Electronic Structure Calculations on Graphics Processing Units, John
 Wiley & Sons, Ltd, 173-190 (2016). 
 GPU-Accelerated Sparse Matrix-Matrix Multiplication for
 Linear Scaling Density Functional Theory.
 https://dx.doi.org/10.1002/9781118670712.ch8

 Borstnik, U; VandeVondele, J; Weber, V; Hutter, J. 
 PARALLEL COMPUTING, 40 (5-6), 47-58 (2014). 
 Sparse matrix multiplication: The distributed block-compressed sparse
 row library.
 https://dx.doi.org/10.1016/j.parco.2014.03.012

 Hutter, J; Iannuzzi, M; Schiffmann, F; VandeVondele, J. 
 WIREs Comput Mol Sci., 4 (1), 15-25 (2014). 
 CP2K: atomistic simulations of condensed matter systems.
 https://dx.doi.org/10.1002/wcms.1159

 Marek, A; Blum, V; Johanni, R; Havu, V; Lang, B; Auckenthaler, T;
 Heinecke, A; Bungartz, H; Lederer, H. 
 Journal of Physics: Condensed Matter, 26 (21), (2014). 
 The ELPA library: scalable parallel eigenvalue solutions for
 electronic structure
 theory and computational science.
 https://dx.doi.org/10.1088/0953-8984/26/21/213201

 Grimme, S; Ehrlich, S; Goerigk, L. 
 JOURNAL OF COMPUTATIONAL CHEMISTRY, 32, 1456 (2011). 
 Effect of the damping function in dispersion corrected density functional theory.
 https://dx.doi.org/10.1002/jcc.21759

 Grimme, S; Antony, J; Ehrlich, S; Krieg, H. 
 JOURNAL OF CHEMICAL PHYSICS, 132 (15), 154104 (2010). 
 A consistent and accurate ab initio parametrization of density
 functional dispersion correction (DFT-D) for the 94 elements H-Pu.
 https://dx.doi.org/10.1063/1.3382344

 VandeVondele, J; Hutter, J. 
 JOURNAL OF CHEMICAL PHYSICS, 127 (11), 114105 (2007). 
 Gaussian basis sets for accurate calculations on molecular systems in
 gas and condensed phases.
 https://dx.doi.org/10.1063/1.2770708

 Krack, M. 
 THEORETICAL CHEMISTRY ACCOUNTS, 114 (1-3), 145-152 (2005). 
 Pseudopotentials for H to Kr optimized for gradient-corrected
 exchange-correlation functionals.
 https://dx.doi.org/10.1007/s00214-005-0655-y

 VandeVondele, J; Krack, M; Mohamed, F; Parrinello, M; Chassaing, T;
 Hutter, J. COMPUTER PHYSICS COMMUNICATIONS, 167 (2), 103-128 (2005). 
 QUICKSTEP: Fast and accurate density functional calculations using a
 mixed Gaussian and plane waves approach.
 https://dx.doi.org/10.1016/j.cpc.2004.12.014

 Frigo, M; Johnson, SG. 
 PROCEEDINGS OF THE IEEE, 93 (2), 216-231 (2005). 
 The design and implementation of FFTW3.
 https://dx.doi.org/10.1109/JPROC.2004.840301

 Hartwigsen, C; Goedecker, S; Hutter, J. 
 PHYSICAL REVIEW B, 58 (7), 3641-3662 (1998). 
 Relativistic separable dual-space Gaussian pseudopotentials from H to Rn.
 https://dx.doi.org/10.1103/PhysRevB.58.3641

 Lippert, G; Hutter, J; Parrinello, M. 
 MOLECULAR PHYSICS, 92 (3), 477-487 (1997). 
 A hybrid Gaussian and plane wave density functional scheme.
 https://dx.doi.org/10.1080/002689797170220

 Perdew, JP; Burke, K; Ernzerhof, M. 
 PHYSICAL REVIEW LETTERS, 77 (18), 3865-3868 (1996). 
 Generalized gradient approximation made simple.
 https://dx.doi.org/10.1103/PhysRevLett.77.3865

 Goedecker, S; Teter, M; Hutter, J. 
 PHYSICAL REVIEW B, 54 (3), 1703-1710 (1996). 
 Separable dual-space Gaussian pseudopotentials.
 https://dx.doi.org/10.1103/PhysRevB.54.1703


 -------------------------------------------------------------------------------
 -                                                                             -
 -                                T I M I N G                                  -
 -                                                                             -
 -------------------------------------------------------------------------------
 SUBROUTINE                       CALLS  ASD         SELF TIME        TOTAL TIME
                                MAXIMUM       AVERAGE  MAXIMUM  AVERAGE  MAXIMUM
 CP2K                                 1  1.0    0.043    0.061   38.945   38.946
 qs_energies                          1  2.0    0.004    0.006   38.598   38.598
 scf_env_do_scf                       1  3.0    0.000    0.000   35.912   35.923
 scf_env_do_scf_inner_loop           52  4.0    0.004    0.010   35.906   35.917
 qs_ks_update_qs_env                 52  5.0    0.000    0.000   17.907   17.910
 rebuild_ks_matrix                   52  6.0    0.000    0.000   17.897   17.900
 qs_ks_build_kohn_sham_matrix        52  7.0    0.005    0.007   17.897   17.900
 sum_up_and_integrate                52  8.0    0.017    0.023    9.298    9.300
 integrate_v_rspace                 104  9.0    4.384    5.670    9.280    9.285
 pw_transfer                       2143  9.5    0.100    0.120    8.840    9.271
 fft_wrap_pw1pw2                   2039 10.5    0.012    0.015    8.720    9.146
 qs_rho_update_rho                   53  5.0    0.000    0.000    8.823    8.830
 calculate_rho_elec                 106  6.0    4.096    5.153    8.823    8.830
 fft_wrap_pw1pw2_300               1199 11.6    0.361    0.452    8.120    8.573
 qs_vxc_create                       52  8.0    0.001    0.001    8.147    8.182
 xc_vxc_pw_create                    52  9.0    0.133    0.165    8.146    8.182
 fft3d_ps                          2039 12.5    2.432    3.299    7.673    8.167
 qs_scf_new_mos                      52  5.0    0.001    0.001    7.081    7.092
 eigensolver                        104  6.0    0.004    0.007    5.994    5.998
 rs_pw_transfer                    1054  9.5    0.009    0.010    4.985    5.755
 mp_alltoall_z22v                  2039 14.5    4.379    5.439    4.379    5.439
 cp_fm_diag_elpa                    106  7.0    0.001    0.001    5.150    5.182
 cp_fm_diag_elpa_base               106  8.0    5.069    5.121    5.149    5.181
 xc_rho_set_and_dset_create          52 10.0    0.083    0.094    4.119    5.088
 density_rs2pw                      106  7.0    0.004    0.005    4.031    4.916
 yz_to_x                            523 13.8    0.111    0.178    2.786    3.592
 potential_pw2rs                    104 10.0    0.005    0.005    3.391    3.398
 xc_functional_eval                  52 11.0    0.000    0.000    1.963    2.938
 pbe_lsd_eval                        52 12.0    1.962    2.938    1.962    2.938
 mp_alltoall_d11v                  1495  9.3    1.846    2.832    1.846    2.832
 rs_distribute_matrix               210  8.5    0.033    0.062    1.707    2.679
 mp_waitany                       24712 11.4    1.675    2.647    1.675    2.647
 rs_pw_transfer_RS2PW_300           108  9.0    0.651    0.795    1.751    2.534
 gspace_mixing                       51  5.0    0.028    0.040    2.110    2.111
 x_to_yz                            676 13.4    0.304    0.481    1.932    2.110
 rs_pw_transfer_PW2RS_300           106 11.9    0.956    1.011    1.597    1.670
 scf_post_calculation_gpw             1  3.0    0.001    0.002    1.550    1.553
 write_available_results              1  4.0    0.000    0.001    1.549    1.552
 write_mo_free_results                1  5.0    0.142    0.171    1.539    1.539
 broyden_mixing                      51  6.0    1.181    1.235    1.339    1.342
 pw_to_cube                           2  6.0    0.035    1.196    1.238    1.272
 mp_bcast_l                           2  7.0    1.152    1.167    1.152    1.167
 cp_fm_cholesky_restore             312  7.0    0.989    1.026    0.989    1.026
 init_scf_run                         1  3.0    0.000    0.000    0.906    0.906
 scf_env_initial_rho_setup            1  4.0    0.000    0.000    0.833    0.833
 -------------------------------------------------------------------------------

 The number of warnings for this run is : 3
 
 -------------------------------------------------------------------------------
  **** **** ******  **  PROGRAM ENDED AT                 2022-10-13 12:39:46.904
 ***** ** ***  *** **   PROGRAM RAN ON                             node-c12e-018
 **    ****   ******    PROGRAM RAN BY                                   mmm1169
 ***** **    ** ** **   PROGRAM PROCESS ID                                 63329
  **** **  *******  **  PROGRAM STOPPED IN /lustre/scratch/mmm1169/work/other/cp
                                           2k_forum/ni_bulk/aspc-broyden-222-sme
                                           ar-slab/slab_multiplicity-33-alpha-5e
                                           -1-beta-5e-1-scf-1e-3-1e-4-5e-5-1e-5-
                                           1e-6
