 DBCSR| CPU Multiplication driver                                           XSMM (U)
 DBCSR| Multrec recursion limit                                              512 (U)
 DBCSR| Multiplication stack size                                           1000 (D)
 DBCSR| Maximum elements for images                                    UNLIMITED (U)
 DBCSR| Multiplicative factor virtual images                                   1 (U)
 DBCSR| Use multiplication densification                                       T (D)
 DBCSR| Multiplication size stacks                                             3 (U)
 DBCSR| Use memory pool for CPU allocation                                     F (U)
 DBCSR| Number of 3D layers                                               SINGLE (U)
 DBCSR| Use MPI memory allocation                                              F (U)
 DBCSR| Use RMA algorithm                                                      F (U)
 DBCSR| Use Communication thread                                               T (U)
 DBCSR| Communication thread load                                             87 (D)
 DBCSR| MPI: My process id                                                     0
 DBCSR| MPI: Number of processes                                             128
 DBCSR| OMP: Current number of threads                                         1
 DBCSR| OMP: Max number of threads                                             1
 DBCSR| Split modifier for TAS multiplication algorithm                  1.0E+00 (U)


  **** **** ******  **  PROGRAM STARTED AT               2023-02-14 13:44:01.467
 ***** ** ***  *** **   PROGRAM STARTED ON                             nid005990
 **    ****   ******    PROGRAM STARTED BY                                cahart
 ***** **    ** ** **   PROGRAM PROCESS ID                                186619
  **** **  *******  **  PROGRAM STARTED IN /mnt/lustre/a2fs-work2/work/e05/e05/c
                                           ahart/postdoc/masters/ni/archer2/slab
                                           /optimise/mos/scf_5e-4_temp-2000_alph
                                           a-0.08_beta-1.5_spin-0.7-0.5/search/4
                                           00

 CP2K| version string:                 CP2K version 2023.1 (Development Version)
 CP2K| source code revision number:                                  git:964cd58
 CP2K| cp2kflags: omp libint fftw3 libxc elpa parallel scalapack xsmm plumed2 mk
 CP2K|            l
 CP2K| is freely available from                            https://www.cp2k.org/
 CP2K| Program compiled at                          Mon 13 Feb 17:05:14 GMT 2023
 CP2K| Program compiled on                                                  ln01
 CP2K| Program compiled for                                              ARCHER2
 CP2K| Data directory path    /work/e05/e05/cahart/cp2k/cp2k-2023.1/cp2k-2023.1-
 CP2K| Input file name                                                  cp2k.inp

 GLOBAL| Force Environment number                                              1
 GLOBAL| Basis set file name                                        BASIS_MOLOPT
 GLOBAL| Potential file name                                      GTH_POTENTIALS
 GLOBAL| MM Potential file name                                     MM_POTENTIAL
 GLOBAL| Coordinate file name                                      __STD_INPUT__
 GLOBAL| Method name                                                        CP2K
 GLOBAL| Project name                                                    Ni_bulk
 GLOBAL| Run type                                                         ENERGY
 GLOBAL| FFT library                                                       FFTW3
 GLOBAL| Diagonalization library                                            ELPA
 GLOBAL| DGEMM library                                                      BLAS
 GLOBAL| Minimum number of eigenvectors for ELPA usage                        16
 GLOBAL| Orthonormality check for eigenvectors                          DISABLED
 GLOBAL| Matrix multiplication library                                 ScaLAPACK
 GLOBAL| All-to-all communication in single precision                          F
 GLOBAL| FFTs using library dependent lengths                                  F
 GLOBAL| Grid backend                                                       AUTO
 GLOBAL| Global print level                                               MEDIUM
 GLOBAL| MPI I/O enabled                                                       T
 GLOBAL| Total number of message passing processes                           128
 GLOBAL| Number of threads for this process                                    1
 GLOBAL| This output is from process                                           0
 GLOBAL| Stack size for threads created by OpenMP (OMP_STACKSIZE)        default
 GLOBAL| CPU model name                          AMD EPYC 7742 64-Core Processor
 GLOBAL| CPUID                                                              1002

 MEMORY| system memory details [Kb]
 MEMORY|                        rank 0           min           max       average
 MEMORY| MemTotal            263528084     263528084     263528084     263528084
 MEMORY| MemFree             238609656     238609656     238609656     238609656
 MEMORY| Buffers                 34252         34252         34252         34252
 MEMORY| Cached                 813464        813464        813464        813464
 MEMORY| Slab                  1604548       1604548       1604548       1604548
 MEMORY| SReclaimable           102160        102160        102160        102160
 MEMORY| MemLikelyFree       239559532     239559532     239559532     239559532


 *** Fundamental physical constants (SI units) ***

 *** Literature: B. J. Mohr and B. N. Taylor,
 ***             CODATA recommended values of the fundamental physical
 ***             constants: 2006, Web Version 5.1
 ***             http://physics.nist.gov/constants

 Speed of light in vacuum [m/s]                             2.99792458000000E+08
 Magnetic constant or permeability of vacuum [N/A**2]       1.25663706143592E-06
 Electric constant or permittivity of vacuum [F/m]          8.85418781762039E-12
 Planck constant (h) [J*s]                                  6.62606896000000E-34
 Planck constant (h-bar) [J*s]                              1.05457162825177E-34
 Elementary charge [C]                                      1.60217648700000E-19
 Electron mass [kg]                                         9.10938215000000E-31
 Electron g factor [ ]                                     -2.00231930436220E+00
 Proton mass [kg]                                           1.67262163700000E-27
 Fine-structure constant                                    7.29735253760000E-03
 Rydberg constant [1/m]                                     1.09737315685270E+07
 Avogadro constant [1/mol]                                  6.02214179000000E+23
 Boltzmann constant [J/K]                                   1.38065040000000E-23
 Atomic mass unit [kg]                                      1.66053878200000E-27
 Bohr radius [m]                                            5.29177208590000E-11

 *** Conversion factors ***

 [u] -> [a.u.]                                              1.82288848426455E+03
 [Angstrom] -> [Bohr] = [a.u.]                              1.88972613288564E+00
 [a.u.] = [Bohr] -> [Angstrom]                              5.29177208590000E-01
 [a.u.] -> [s]                                              2.41888432650478E-17
 [a.u.] -> [fs]                                             2.41888432650478E-02
 [a.u.] -> [J]                                              4.35974393937059E-18
 [a.u.] -> [N]                                              8.23872205491840E-08
 [a.u.] -> [K]                                              3.15774647902944E+05
 [a.u.] -> [kJ/mol]                                         2.62549961709828E+03
 [a.u.] -> [kcal/mol]                                       6.27509468713739E+02
 [a.u.] -> [Pa]                                             2.94210107994716E+13
 [a.u.] -> [bar]                                            2.94210107994716E+08
 [a.u.] -> [atm]                                            2.90362800883016E+08
 [a.u.] -> [eV]                                             2.72113838565563E+01
 [a.u.] -> [Hz]                                             6.57968392072181E+15
 [a.u.] -> [1/cm] (wave numbers)                            2.19474631370540E+05
 [a.u./Bohr**2] -> [1/cm]                                   5.14048714338585E+03
 

 CELL_TOP| Volume [angstrom^3]:                                       983.249569
 CELL_TOP| Vector a [angstrom     7.012     0.000     0.000   |a| =     7.011596
 CELL_TOP| Vector b [angstrom     0.000     7.012     0.000   |b| =     7.011596
 CELL_TOP| Vector c [angstrom     0.000     0.000    20.000   |c| =    20.000000
 CELL_TOP| Angle (b,c), alpha [degree]:                                90.000000
 CELL_TOP| Angle (a,c), beta  [degree]:                                90.000000
 CELL_TOP| Angle (a,b), gamma [degree]:                                90.000000
 CELL_TOP| Numerically orthorhombic:                                         YES
 CELL_TOP| Periodicity                                                        XY

 GENERATE|  Preliminary Number of Bonds generated:                             0
 GENERATE|  Achieved consistency in connectivity generation.

 CELL| Volume [angstrom^3]:                                           983.249569
 CELL| Vector a [angstrom]:       7.012     0.000     0.000   |a| =     7.011596
 CELL| Vector b [angstrom]:       0.000     7.012     0.000   |b| =     7.011596
 CELL| Vector c [angstrom]:       0.000     0.000    20.000   |c| =    20.000000
 CELL| Angle (b,c), alpha [degree]:                                    90.000000
 CELL| Angle (a,c), beta  [degree]:                                    90.000000
 CELL| Angle (a,b), gamma [degree]:                                    90.000000
 CELL| Numerically orthorhombic:                                             YES
 CELL| Periodicity                                                            XY

 CELL_REF| Volume [angstrom^3]:                                       983.249569
 CELL_REF| Vector a [angstrom     7.012     0.000     0.000   |a| =     7.011596
 CELL_REF| Vector b [angstrom     0.000     7.012     0.000   |b| =     7.011596
 CELL_REF| Vector c [angstrom     0.000     0.000    20.000   |c| =    20.000000
 CELL_REF| Angle (b,c), alpha [degree]:                                90.000000
 CELL_REF| Angle (a,c), beta  [degree]:                                90.000000
 CELL_REF| Angle (a,b), gamma [degree]:                                90.000000
 CELL_REF| Numerically orthorhombic:                                         YES
 CELL_REF| Periodicity                                                        XY

 *** WARNING in cryssym.F:165 :: Symmetry library SPGLIB not available ***


 *******************************************************************************
                                    Kpoints
 *******************************************************************************
 BRILLOUIN| K-point scheme                                        Monkhorst-Pack
 BRILLOUIN| K-Point grid                                             4    4    1
 BRILLOUIN| Accuracy in Symmetry determination                      0.100000E-05
 BRILLOUIN| K-Point point group symmetrization                               OFF
 BRILLOUIN| Wavefunction type                                            COMPLEX
 BRILLOUIN| List of Kpoints [2 Pi/Bohr]                                        8
 BRILLOUIN| Number           Weight            X              Y              Z
 BRILLOUIN|     1           0.12500       -0.37500       -0.37500        0.00000
 BRILLOUIN|     2           0.12500       -0.37500       -0.12500        0.00000
 BRILLOUIN|     3           0.12500       -0.37500        0.12500        0.00000
 BRILLOUIN|     4           0.12500       -0.37500        0.37500        0.00000
 BRILLOUIN|     5           0.12500       -0.12500       -0.37500        0.00000
 BRILLOUIN|     6           0.12500       -0.12500       -0.12500        0.00000
 BRILLOUIN|     7           0.12500       -0.12500        0.12500        0.00000
 BRILLOUIN|     8           0.12500       -0.12500        0.37500        0.00000
 *******************************************************************************

 *******************************************************************************
 *******************************************************************************
 **                                                                           **
 **     #####                         ##              ##                      **
 **    ##   ##            ##          ##              ##                      **
 **   ##     ##                       ##            ######                    **
 **   ##     ##  ##   ##  ##   #####  ##  ##   ####   ##    #####    #####    **
 **   ##     ##  ##   ##  ##  ##      ## ##   ##      ##   ##   ##  ##   ##   **
 **   ##  ## ##  ##   ##  ##  ##      ####     ###    ##   ######   ######    **
 **    ##  ###   ##   ##  ##  ##      ## ##      ##   ##   ##       ##        **
 **     #######   #####   ##   #####  ##  ##  ####    ##    #####   ##        **
 **           ##                                                    ##        **
 **                                                                           **
 **                                                ... make the atoms dance   **
 **                                                                           **
 **            Copyright (C) by CP2K developers group (2000-2023)             **
 **                      J. Chem. Phys. 152, 194103 (2020)                    **
 **                                                                           **
 *******************************************************************************

 *** WARNING in qs_environment.F:1456 :: Number of electrons will be ***
 *** overwritten by NELEC_ALPHA and NELEC_BETA, multiplicity will be ***
 *** ignored.                                                        ***

 Number of electrons should be                                               576
 Sum of NELEC_ALPHA and NELEC_BETA is                                    576.000

 *** WARNING in qs_environment.F:1488 :: NELEC_ALPHA is not an integer, ***
 *** many features will not be supported.                               ***


 *** WARNING in qs_environment.F:1500 :: NELEC_BETA is not an integer, ***
 *** many features will not be supported.                              ***


 *** WARNING in qs_environment.F:1572 :: Kpoints: Different number of MOs   ***
 *** requested. The number of beta MOs will be set to the number alpha MOs. ***


 DFT| Spin unrestricted (spin-polarized) Kohn-Sham calculation               UKS
 DFT| Multiplicity                                                             1
 DFT| Number of spin states                                                    2
 DFT| Charge                                                                   0
 DFT| Self-interaction correction (SIC)                                       NO
 DFT| Cutoffs: density                                              1.000000E-10
 DFT|          gradient                                             1.000000E-10
 DFT|          tau                                                  1.000000E-10
 DFT|          cutoff_smoothing_range                               0.000000E+00
 DFT| XC density smoothing                                                  NONE
 DFT| XC derivatives                                                          PW

 FUNCTIONAL| PBE:
 FUNCTIONAL| J.P.Perdew, K.Burke, M.Ernzerhof, Phys. Rev. Letter, vol. 77, n 18,
 FUNCTIONAL|  pp. 3865-3868, (1996){spin polarized}                             

 vdW POTENTIAL|                                                   Pair Potential
 vdW POTENTIAL|          DFT-D3 (Version 3.1)
 vdW POTENTIAL|          Potential Form: S. Grimme et al, JCP 132: 154104 (2010)
 vdW POTENTIAL|          Zero Damping
 vdW POTENTIAL|          Cutoff Radius [Bohr]:                             20.00
 vdW POTENTIAL|          s6 Scaling Factor:                               1.0000
 vdW POTENTIAL|          sr6 Scaling Factor:                              1.2170
 vdW POTENTIAL|          s8 Scaling Factor:                               0.7220
 vdW POTENTIAL|          Cutoff for CN calculation:                   0.1000E-05

 QS| Method:                                                                 GPW
 QS| Density plane wave grid type                        NON-SPHERICAL FULLSPACE
 QS| Number of grid levels:                                                    5
 QS| Density cutoff [a.u.]:                                                300.0
 QS| Multi grid cutoff [a.u.]: 1) grid level                               300.0
 QS|                           2) grid level                               100.0
 QS|                           3) grid level                                33.3
 QS|                           4) grid level                                11.1
 QS|                           5) grid level                                 3.7
 QS| Grid level progression factor:                                          3.0
 QS| Relative density cutoff [a.u.]:                                        30.0
 QS| Interaction thresholds: eps_pgf_orb:                                1.0E-06
 QS|                         eps_filter_matrix:                          0.0E+00
 QS|                         eps_core_charge:                            1.0E-14
 QS|                         eps_rho_gspace:                             1.0E-12
 QS|                         eps_rho_rspace:                             1.0E-12
 QS|                         eps_gvg_rspace:                             1.0E-06
 QS|                         eps_ppl:                                    1.0E-02
 QS|                         eps_ppnl:                                   1.0E-08


 ATOMIC KIND INFORMATION

  1. Atomic kind: Ni_i                                  Number of atoms:      16

     Orbital Basis Set                                        DZVP-MOLOPT-SR-GTH

       Number of orbital shell sets:                                           1
       Number of orbital shells:                                               8
       Number of primitive Cartesian functions:                                6
       Number of Cartesian basis functions:                                   31
       Number of spherical basis functions:                                   26
       Norm type:                                                              2

       Normalised Cartesian orbitals:

                        Set   Shell   Orbital            Exponent    Coefficient

                          1       1    2s               10.077428      -0.684558
                                                         5.847736      -0.844524
                                                         2.494033       1.088856
                                                         0.988355       0.395503
                                                         0.344978       0.010224
                                                         0.099466      -0.003250

                          1       2    3s               10.077428       0.096747
                                                         5.847736       0.162504
                                                         2.494033      -0.297192
                                                         0.988355      -0.319752
                                                         0.344978       0.088318
                                                         0.099466       0.118587

                          1       3    4s               10.077428       0.036437
                                                         5.847736      -0.381480
                                                         2.494033       0.003759
                                                         0.988355      -1.048256
                                                         0.344978       0.855825
                                                         0.099466      -0.176350

                          1       4    3px              10.077428      -3.133913
                                                         5.847736       3.027656
                                                         2.494033       2.353227
                                                         0.988355       0.554184
                                                         0.344978       0.019462
                                                         0.099466      -0.000291
                          1       4    3py              10.077428      -3.133913
                                                         5.847736       3.027656
                                                         2.494033       2.353227
                                                         0.988355       0.554184
                                                         0.344978       0.019462
                                                         0.099466      -0.000291
                          1       4    3pz              10.077428      -3.133913
                                                         5.847736       3.027656
                                                         2.494033       2.353227
                                                         0.988355       0.554184
                                                         0.344978       0.019462
                                                         0.099466      -0.000291

                          1       5    4px              10.077428      -0.112729
                                                         5.847736      -0.114008
                                                         2.494033      -0.347303
                                                         0.988355      -0.110323
                                                         0.344978       0.154096
                                                         0.099466       0.058386
                          1       5    4py              10.077428      -0.112729
                                                         5.847736      -0.114008
                                                         2.494033      -0.347303
                                                         0.988355      -0.110323
                                                         0.344978       0.154096
                                                         0.099466       0.058386
                          1       5    4pz              10.077428      -0.112729
                                                         5.847736      -0.114008
                                                         2.494033      -0.347303
                                                         0.988355      -0.110323
                                                         0.344978       0.154096
                                                         0.099466       0.058386

                          1       6    4dx2             10.077428       8.232726
                                                         5.847736       9.105758
                                                         2.494033       2.849835
                                                         0.988355       0.554319
                                                         0.344978       0.067245
                                                         0.099466       0.001940
                          1       6    4dxy             10.077428      14.259500
                                                         5.847736      15.771636
                                                         2.494033       4.936060
                                                         0.988355       0.960109
                                                         0.344978       0.116472
                                                         0.099466       0.003360
                          1       6    4dxz             10.077428      14.259500
                                                         5.847736      15.771636
                                                         2.494033       4.936060
                                                         0.988355       0.960109
                                                         0.344978       0.116472
                                                         0.099466       0.003360
                          1       6    4dy2             10.077428       8.232726
                                                         5.847736       9.105758
                                                         2.494033       2.849835
                                                         0.988355       0.554319
                                                         0.344978       0.067245
                                                         0.099466       0.001940
                          1       6    4dyz             10.077428      14.259500
                                                         5.847736      15.771636
                                                         2.494033       4.936060
                                                         0.988355       0.960109
                                                         0.344978       0.116472
                                                         0.099466       0.003360
                          1       6    4dz2             10.077428       8.232726
                                                         5.847736       9.105758
                                                         2.494033       2.849835
                                                         0.988355       0.554319
                                                         0.344978       0.067245
                                                         0.099466       0.001940

                          1       7    5dx2             10.077428      -2.715373
                                                         5.847736      -4.020640
                                                         2.494033      -1.397569
                                                         0.988355      -0.076143
                                                         0.344978       0.033435
                                                         0.099466       0.026032
                          1       7    5dxy             10.077428      -4.703164
                                                         5.847736      -6.963952
                                                         2.494033      -2.420661
                                                         0.988355      -0.131883
                                                         0.344978       0.057911
                                                         0.099466       0.045088
                          1       7    5dxz             10.077428      -4.703164
                                                         5.847736      -6.963952
                                                         2.494033      -2.420661
                                                         0.988355      -0.131883
                                                         0.344978       0.057911
                                                         0.099466       0.045088
                          1       7    5dy2             10.077428      -2.715373
                                                         5.847736      -4.020640
                                                         2.494033      -1.397569
                                                         0.988355      -0.076143
                                                         0.344978       0.033435
                                                         0.099466       0.026032
                          1       7    5dyz             10.077428      -4.703164
                                                         5.847736      -6.963952
                                                         2.494033      -2.420661
                                                         0.988355      -0.131883
                                                         0.344978       0.057911
                                                         0.099466       0.045088
                          1       7    5dz2             10.077428      -2.715373
                                                         5.847736      -4.020640
                                                         2.494033      -1.397569
                                                         0.988355      -0.076143
                                                         0.344978       0.033435
                                                         0.099466       0.026032

                          1       8    5fx3             10.077428      -0.467694
                                                         5.847736       0.618100
                                                         2.494033       0.066069
                                                         0.988355       0.262898
                                                         0.344978       0.004720
                                                         0.099466       0.007748
                          1       8    5fx2y            10.077428      -1.045795
                                                         5.847736       1.382114
                                                         2.494033       0.147734
                                                         0.988355       0.587859
                                                         0.344978       0.010555
                                                         0.099466       0.017325
                          1       8    5fx2z            10.077428      -1.045795
                                                         5.847736       1.382114
                                                         2.494033       0.147734
                                                         0.988355       0.587859
                                                         0.344978       0.010555
                                                         0.099466       0.017325
                          1       8    5fxy2            10.077428      -1.045795
                                                         5.847736       1.382114
                                                         2.494033       0.147734
                                                         0.988355       0.587859
                                                         0.344978       0.010555
                                                         0.099466       0.017325
                          1       8    5fxyz            10.077428      -1.811371
                                                         5.847736       2.393892
                                                         2.494033       0.255883
                                                         0.988355       1.018201
                                                         0.344978       0.018282
                                                         0.099466       0.030008
                          1       8    5fxz2            10.077428      -1.045795
                                                         5.847736       1.382114
                                                         2.494033       0.147734
                                                         0.988355       0.587859
                                                         0.344978       0.010555
                                                         0.099466       0.017325
                          1       8    5fy3             10.077428      -0.467694
                                                         5.847736       0.618100
                                                         2.494033       0.066069
                                                         0.988355       0.262898
                                                         0.344978       0.004720
                                                         0.099466       0.007748
                          1       8    5fy2z            10.077428      -1.045795
                                                         5.847736       1.382114
                                                         2.494033       0.147734
                                                         0.988355       0.587859
                                                         0.344978       0.010555
                                                         0.099466       0.017325
                          1       8    5fyz2            10.077428      -1.045795
                                                         5.847736       1.382114
                                                         2.494033       0.147734
                                                         0.988355       0.587859
                                                         0.344978       0.010555
                                                         0.099466       0.017325
                          1       8    5fz3             10.077428      -0.467694
                                                         5.847736       0.618100
                                                         2.494033       0.066069
                                                         0.988355       0.262898
                                                         0.344978       0.004720
                                                         0.099466       0.007748

       Atomic covalent radius [Angstrom]:                                  1.150

       Atomic van der Waals radius [Angstrom]:                             1.630

     GTH Potential information for                                   GTH-PBE-q18

       Description:                       Goedecker-Teter-Hutter pseudopotential
                                           Goedecker et al., PRB 54, 1703 (1996)
                                          Hartwigsen et al., PRB 58, 3641 (1998)
                                                      Krack, TCA 114, 145 (2005)

       Gaussian exponent of the core charge distribution:               4.081633
       Electronic configuration (s p d ...):                           4   6   8

       Parameters of the local part of the GTH pseudopotential:

                          rloc        C1          C2          C3          C4
                        0.350000    2.102166    0.648484

       Parameters of the non-local part of the GTH pseudopotential:

                   l      r(l)      h(i,j,l)

                   0    0.261295    0.622658    9.970227
                                    9.970227  -12.871507
                   1    0.224253  -11.142708   12.429566
                                   12.429566  -14.706861
                   2    0.215348  -12.628146

  2. Atomic kind: Ni_b                                  Number of atoms:      16

     Orbital Basis Set                                        DZVP-MOLOPT-SR-GTH

       Number of orbital shell sets:                                           1
       Number of orbital shells:                                               8
       Number of primitive Cartesian functions:                                6
       Number of Cartesian basis functions:                                   31
       Number of spherical basis functions:                                   26
       Norm type:                                                              2

       Normalised Cartesian orbitals:

                        Set   Shell   Orbital            Exponent    Coefficient

                          1       1    2s               10.077428      -0.684558
                                                         5.847736      -0.844524
                                                         2.494033       1.088856
                                                         0.988355       0.395503
                                                         0.344978       0.010224
                                                         0.099466      -0.003250

                          1       2    3s               10.077428       0.096747
                                                         5.847736       0.162504
                                                         2.494033      -0.297192
                                                         0.988355      -0.319752
                                                         0.344978       0.088318
                                                         0.099466       0.118587

                          1       3    4s               10.077428       0.036437
                                                         5.847736      -0.381480
                                                         2.494033       0.003759
                                                         0.988355      -1.048256
                                                         0.344978       0.855825
                                                         0.099466      -0.176350

                          1       4    3px              10.077428      -3.133913
                                                         5.847736       3.027656
                                                         2.494033       2.353227
                                                         0.988355       0.554184
                                                         0.344978       0.019462
                                                         0.099466      -0.000291
                          1       4    3py              10.077428      -3.133913
                                                         5.847736       3.027656
                                                         2.494033       2.353227
                                                         0.988355       0.554184
                                                         0.344978       0.019462
                                                         0.099466      -0.000291
                          1       4    3pz              10.077428      -3.133913
                                                         5.847736       3.027656
                                                         2.494033       2.353227
                                                         0.988355       0.554184
                                                         0.344978       0.019462
                                                         0.099466      -0.000291

                          1       5    4px              10.077428      -0.112729
                                                         5.847736      -0.114008
                                                         2.494033      -0.347303
                                                         0.988355      -0.110323
                                                         0.344978       0.154096
                                                         0.099466       0.058386
                          1       5    4py              10.077428      -0.112729
                                                         5.847736      -0.114008
                                                         2.494033      -0.347303
                                                         0.988355      -0.110323
                                                         0.344978       0.154096
                                                         0.099466       0.058386
                          1       5    4pz              10.077428      -0.112729
                                                         5.847736      -0.114008
                                                         2.494033      -0.347303
                                                         0.988355      -0.110323
                                                         0.344978       0.154096
                                                         0.099466       0.058386

                          1       6    4dx2             10.077428       8.232726
                                                         5.847736       9.105758
                                                         2.494033       2.849835
                                                         0.988355       0.554319
                                                         0.344978       0.067245
                                                         0.099466       0.001940
                          1       6    4dxy             10.077428      14.259500
                                                         5.847736      15.771636
                                                         2.494033       4.936060
                                                         0.988355       0.960109
                                                         0.344978       0.116472
                                                         0.099466       0.003360
                          1       6    4dxz             10.077428      14.259500
                                                         5.847736      15.771636
                                                         2.494033       4.936060
                                                         0.988355       0.960109
                                                         0.344978       0.116472
                                                         0.099466       0.003360
                          1       6    4dy2             10.077428       8.232726
                                                         5.847736       9.105758
                                                         2.494033       2.849835
                                                         0.988355       0.554319
                                                         0.344978       0.067245
                                                         0.099466       0.001940
                          1       6    4dyz             10.077428      14.259500
                                                         5.847736      15.771636
                                                         2.494033       4.936060
                                                         0.988355       0.960109
                                                         0.344978       0.116472
                                                         0.099466       0.003360
                          1       6    4dz2             10.077428       8.232726
                                                         5.847736       9.105758
                                                         2.494033       2.849835
                                                         0.988355       0.554319
                                                         0.344978       0.067245
                                                         0.099466       0.001940

                          1       7    5dx2             10.077428      -2.715373
                                                         5.847736      -4.020640
                                                         2.494033      -1.397569
                                                         0.988355      -0.076143
                                                         0.344978       0.033435
                                                         0.099466       0.026032
                          1       7    5dxy             10.077428      -4.703164
                                                         5.847736      -6.963952
                                                         2.494033      -2.420661
                                                         0.988355      -0.131883
                                                         0.344978       0.057911
                                                         0.099466       0.045088
                          1       7    5dxz             10.077428      -4.703164
                                                         5.847736      -6.963952
                                                         2.494033      -2.420661
                                                         0.988355      -0.131883
                                                         0.344978       0.057911
                                                         0.099466       0.045088
                          1       7    5dy2             10.077428      -2.715373
                                                         5.847736      -4.020640
                                                         2.494033      -1.397569
                                                         0.988355      -0.076143
                                                         0.344978       0.033435
                                                         0.099466       0.026032
                          1       7    5dyz             10.077428      -4.703164
                                                         5.847736      -6.963952
                                                         2.494033      -2.420661
                                                         0.988355      -0.131883
                                                         0.344978       0.057911
                                                         0.099466       0.045088
                          1       7    5dz2             10.077428      -2.715373
                                                         5.847736      -4.020640
                                                         2.494033      -1.397569
                                                         0.988355      -0.076143
                                                         0.344978       0.033435
                                                         0.099466       0.026032

                          1       8    5fx3             10.077428      -0.467694
                                                         5.847736       0.618100
                                                         2.494033       0.066069
                                                         0.988355       0.262898
                                                         0.344978       0.004720
                                                         0.099466       0.007748
                          1       8    5fx2y            10.077428      -1.045795
                                                         5.847736       1.382114
                                                         2.494033       0.147734
                                                         0.988355       0.587859
                                                         0.344978       0.010555
                                                         0.099466       0.017325
                          1       8    5fx2z            10.077428      -1.045795
                                                         5.847736       1.382114
                                                         2.494033       0.147734
                                                         0.988355       0.587859
                                                         0.344978       0.010555
                                                         0.099466       0.017325
                          1       8    5fxy2            10.077428      -1.045795
                                                         5.847736       1.382114
                                                         2.494033       0.147734
                                                         0.988355       0.587859
                                                         0.344978       0.010555
                                                         0.099466       0.017325
                          1       8    5fxyz            10.077428      -1.811371
                                                         5.847736       2.393892
                                                         2.494033       0.255883
                                                         0.988355       1.018201
                                                         0.344978       0.018282
                                                         0.099466       0.030008
                          1       8    5fxz2            10.077428      -1.045795
                                                         5.847736       1.382114
                                                         2.494033       0.147734
                                                         0.988355       0.587859
                                                         0.344978       0.010555
                                                         0.099466       0.017325
                          1       8    5fy3             10.077428      -0.467694
                                                         5.847736       0.618100
                                                         2.494033       0.066069
                                                         0.988355       0.262898
                                                         0.344978       0.004720
                                                         0.099466       0.007748
                          1       8    5fy2z            10.077428      -1.045795
                                                         5.847736       1.382114
                                                         2.494033       0.147734
                                                         0.988355       0.587859
                                                         0.344978       0.010555
                                                         0.099466       0.017325
                          1       8    5fyz2            10.077428      -1.045795
                                                         5.847736       1.382114
                                                         2.494033       0.147734
                                                         0.988355       0.587859
                                                         0.344978       0.010555
                                                         0.099466       0.017325
                          1       8    5fz3             10.077428      -0.467694
                                                         5.847736       0.618100
                                                         2.494033       0.066069
                                                         0.988355       0.262898
                                                         0.344978       0.004720
                                                         0.099466       0.007748

       Atomic covalent radius [Angstrom]:                                  1.150

       Atomic van der Waals radius [Angstrom]:                             1.630

     GTH Potential information for                                   GTH-PBE-q18

       Description:                       Goedecker-Teter-Hutter pseudopotential
                                           Goedecker et al., PRB 54, 1703 (1996)
                                          Hartwigsen et al., PRB 58, 3641 (1998)
                                                      Krack, TCA 114, 145 (2005)

       Gaussian exponent of the core charge distribution:               4.081633
       Electronic configuration (s p d ...):                           4   6   8

       Parameters of the local part of the GTH pseudopotential:

                          rloc        C1          C2          C3          C4
                        0.350000    2.102166    0.648484

       Parameters of the non-local part of the GTH pseudopotential:

                   l      r(l)      h(i,j,l)

                   0    0.261295    0.622658    9.970227
                                    9.970227  -12.871507
                   1    0.224253  -11.142708   12.429566
                                   12.429566  -14.706861
                   2    0.215348  -12.628146


 MOLECULE KIND INFORMATION


 All atoms are their own molecule, skipping detailed information


 TOTAL NUMBERS AND MAXIMUM NUMBERS

  Total number of            - Atomic kinds:                                   2
                             - Atoms:                                         32
                             - Shell sets:                                    32
                             - Shells:                                       256
                             - Primitive Cartesian functions:                192
                             - Cartesian basis functions:                    992
                             - Spherical basis functions:                    832

  Maximum angular momentum of- Orbital basis functions:                        3
                             - Local part of the GTH pseudopotential:          2
                             - Non-local part of the GTH pseudopotential:      3


 MODULE QUICKSTEP: ATOMIC COORDINATES IN ANGSTROM

   Atom Kind Element         X             Y             Z       Z(eff)     Mass
      1    1 Ni   28      0.876298      0.876298      7.370500  18.0000  58.6934
      2    1 Ni   28      0.876298      4.382298      7.370500  18.0000  58.6934
      3    1 Ni   28      2.629298      2.629298      7.370500  18.0000  58.6934
      4    1 Ni   28      2.629298      6.135298      7.370500  18.0000  58.6934
      5    1 Ni   28      4.382298      0.876298      7.370500  18.0000  58.6934
      6    1 Ni   28      4.382298      4.382298      7.370500  18.0000  58.6934
      7    1 Ni   28      6.135298      2.629298      7.370500  18.0000  58.6934
      8    1 Ni   28      6.135298      6.135298      7.370500  18.0000  58.6934
      9    2 Ni   28      0.876298      2.629298      9.123500  18.0000  58.6934
     10    2 Ni   28      0.876298      6.135298      9.123500  18.0000  58.6934
     11    2 Ni   28      2.629298      0.876298      9.123500  18.0000  58.6934
     12    2 Ni   28      2.629298      4.382298      9.123500  18.0000  58.6934
     13    2 Ni   28      4.382298      2.629298      9.123500  18.0000  58.6934
     14    2 Ni   28      4.382298      6.135298      9.123500  18.0000  58.6934
     15    2 Ni   28      6.135298      0.876298      9.123500  18.0000  58.6934
     16    2 Ni   28      6.135298      4.382298      9.123500  18.0000  58.6934
     17    2 Ni   28      0.876298      0.876298     10.876500  18.0000  58.6934
     18    2 Ni   28      0.876298      4.382298     10.876500  18.0000  58.6934
     19    2 Ni   28      2.629298      2.629298     10.876500  18.0000  58.6934
     20    2 Ni   28      2.629298      6.135298     10.876500  18.0000  58.6934
     21    2 Ni   28      4.382298      0.876298     10.876500  18.0000  58.6934
     22    2 Ni   28      4.382298      4.382298     10.876500  18.0000  58.6934
     23    2 Ni   28      6.135298      2.629298     10.876500  18.0000  58.6934
     24    2 Ni   28      6.135298      6.135298     10.876500  18.0000  58.6934
     25    1 Ni   28      0.876298      2.629298     12.629500  18.0000  58.6934
     26    1 Ni   28      0.876298      6.135298     12.629500  18.0000  58.6934
     27    1 Ni   28      2.629298      0.876298     12.629500  18.0000  58.6934
     28    1 Ni   28      2.629298      4.382298     12.629500  18.0000  58.6934
     29    1 Ni   28      4.382298      2.629298     12.629500  18.0000  58.6934
     30    1 Ni   28      4.382298      6.135298     12.629500  18.0000  58.6934
     31    1 Ni   28      6.135298      0.876298     12.629500  18.0000  58.6934
     32    1 Ni   28      6.135298      4.382298     12.629500  18.0000  58.6934



 SCF PARAMETERS         Density guess:                                    ATOMIC
                        --------------------------------------------------------
                        max_scf:                                             500
                        max_scf_history:                                       0
                        max_diis:                                              4
                        --------------------------------------------------------
                        eps_scf:                                        5.00E-04
                        eps_scf_history:                                0.00E+00
                        eps_diis:                                       1.00E-01
                        eps_eigval:                                     1.00E-05
                        --------------------------------------------------------
                        level_shift [a.u.]:                             0.000000
                        added MOs                                       400  400
                        --------------------------------------------------------
                        Mixing method:                            BROYDEN_MIXING
                                                charge density mixing in g-space
                        --------------------------------------------------------
                        Smear method:                                FERMI_DIRAC
                        Electronic temperature [K]:                       2000.0
                        Electronic temperature [a.u.]:                  6.33E-03
                        Accuracy threshold:                             1.00E-10
                        --------------------------------------------------------
                        No outer SCF

 PW_GRID| Information for grid number                                          1
 PW_GRID| Grid distributed over                                   128 processors
 PW_GRID| Real space group dimensions                                     8   16
 PW_GRID| the grid is blocked:                                               YES
 PW_GRID| Cutoff [a.u.]                                                    300.0
 PW_GRID| spherical cutoff:                                                   NO
 PW_GRID|   Bounds   1            -54      53                Points:         108
 PW_GRID|   Bounds   2            -54      53                Points:         108
 PW_GRID|   Bounds   3           -150     149                Points:         300
 PW_GRID| Volume element (a.u.^3)  0.1896E-02     Volume (a.u.^3)      6635.2971
 PW_GRID| Grid span                                                    FULLSPACE
 PW_GRID|   Distribution                         Average         Max         Min
 PW_GRID|   G-Vectors                            27337.5       28728       25272
 PW_GRID|   G-Rays                                 253.1         266         234
 PW_GRID|   Real Space Points                    27337.5       28728       25272

 PW_GRID| Information for grid number                                          2
 PW_GRID| Number of the reference grid                                         1
 PW_GRID| Grid distributed over                                   128 processors
 PW_GRID| Real space group dimensions                                     8   16
 PW_GRID| the grid is blocked:                                                NO
 PW_GRID| Cutoff [a.u.]                                                    100.0
 PW_GRID| spherical cutoff:                                                   NO
 PW_GRID|   Bounds   1            -30      29                Points:          60
 PW_GRID|   Bounds   2            -30      29                Points:          60
 PW_GRID|   Bounds   3            -90      89                Points:         180
 PW_GRID| Volume element (a.u.^3)  0.1024E-01     Volume (a.u.^3)      6635.2971
 PW_GRID| Grid span                                                    FULLSPACE
 PW_GRID|   Distribution                         Average         Max         Min
 PW_GRID|   G-Vectors                             5062.5       15960           0
 PW_GRID|   G-Rays                                  84.4         266           0
 PW_GRID|   Real Space Points                     5062.5        5760        3780

 PW_GRID| Information for grid number                                          3
 PW_GRID| Number of the reference grid                                         1
 PW_GRID| Grid distributed over                                   128 processors
 PW_GRID| Real space group dimensions                                     8   16
 PW_GRID| the grid is blocked:                                                NO
 PW_GRID| Cutoff [a.u.]                                                     33.3
 PW_GRID| spherical cutoff:                                                   NO
 PW_GRID|   Bounds   1            -18      17                Points:          36
 PW_GRID|   Bounds   2            -18      17                Points:          36
 PW_GRID|   Bounds   3            -50      49                Points:         100
 PW_GRID| Volume element (a.u.^3)  0.5120E-01     Volume (a.u.^3)      6635.2971
 PW_GRID| Grid span                                                    FULLSPACE
 PW_GRID|   Distribution                         Average         Max         Min
 PW_GRID|   G-Vectors                             1012.5        9576           0
 PW_GRID|   G-Rays                                  28.1         266           0
 PW_GRID|   Real Space Points                     1012.5        1500         800

 PW_GRID| Information for grid number                                          4
 PW_GRID| Number of the reference grid                                         1
 PW_GRID| Grid distributed over                                   128 processors
 PW_GRID| Real space group dimensions                                     8   16
 PW_GRID| the grid is blocked:                                                NO
 PW_GRID| Cutoff [a.u.]                                                     11.1
 PW_GRID| spherical cutoff:                                                   NO
 PW_GRID|   Bounds   1            -10       9                Points:          20
 PW_GRID|   Bounds   2            -10       9                Points:          20
 PW_GRID|   Bounds   3            -30      29                Points:          60
 PW_GRID| Volume element (a.u.^3)  0.2765         Volume (a.u.^3)      6635.2971
 PW_GRID| Grid span                                                    FULLSPACE
 PW_GRID|   Distribution                         Average         Max         Min
 PW_GRID|   G-Vectors                              187.5        3800           0
 PW_GRID|   G-Rays                                   9.4         190           0
 PW_GRID|   Real Space Points                      187.5         360         120

 PW_GRID| Information for grid number                                          5
 PW_GRID| Number of the reference grid                                         1
 PW_GRID| Grid distributed over                                   128 processors
 PW_GRID| Real space group dimensions                                     8   16
 PW_GRID| the grid is blocked:                                                NO
 PW_GRID| Cutoff [a.u.]                                                      3.7
 PW_GRID| spherical cutoff:                                                   NO
 PW_GRID|   Bounds   1             -6       5                Points:          12
 PW_GRID|   Bounds   2             -6       5                Points:          12
 PW_GRID|   Bounds   3            -18      17                Points:          36
 PW_GRID| Volume element (a.u.^3)   1.280         Volume (a.u.^3)      6635.2971
 PW_GRID| Grid span                                                    FULLSPACE
 PW_GRID|   Distribution                         Average         Max         Min
 PW_GRID|   G-Vectors                               40.5        1296           0
 PW_GRID|   G-Rays                                   3.4         108           0
 PW_GRID|   Real Space Points                       40.5          72           0

 POISSON| Solver                                                        PERIODIC
 POISSON| Periodicity                                                        XYZ

 *** WARNING in pw_env_methods.F:737 :: The selected periodicities in the ***
 *** sections &CELL and &POISSON do not match                             ***


 RS_GRID| Information for grid number                                          1
 RS_GRID|   Bounds   1            -54      53                Points:         108
 RS_GRID|   Bounds   2            -54      53                Points:         108
 RS_GRID|   Bounds   3           -150     149                Points:         300
 RS_GRID| Real space distribution over                                  8 groups
 RS_GRID| Real space distribution along direction                              2
 RS_GRID| Border size                                                         28
 RS_GRID| Real space distribution over                                 16 groups
 RS_GRID| Real space distribution along direction                              3
 RS_GRID| Border size                                                         28
 RS_GRID|   Distribution                         Average         Max         Min
 RS_GRID|   Planes                                  69.5          70          69
 RS_GRID|   Distribution                         Average         Max         Min
 RS_GRID|   Planes                                  74.8          75          74

 RS_GRID| Information for grid number                                          2
 RS_GRID|   Bounds   1            -30      29                Points:          60
 RS_GRID|   Bounds   2            -30      29                Points:          60
 RS_GRID|   Bounds   3            -90      89                Points:         180
 RS_GRID| Real space fully replicated
 RS_GRID| Group size                                                           1

 RS_GRID| Information for grid number                                          3
 RS_GRID|   Bounds   1            -18      17                Points:          36
 RS_GRID|   Bounds   2            -18      17                Points:          36
 RS_GRID|   Bounds   3            -50      49                Points:         100
 RS_GRID| Real space fully replicated
 RS_GRID| Group size                                                           1

 RS_GRID| Information for grid number                                          4
 RS_GRID|   Bounds   1            -10       9                Points:          20
 RS_GRID|   Bounds   2            -10       9                Points:          20
 RS_GRID|   Bounds   3            -30      29                Points:          60
 RS_GRID| Real space fully replicated
 RS_GRID| Group size                                                           1

 RS_GRID| Information for grid number                                          5
 RS_GRID|   Bounds   1             -6       5                Points:          12
 RS_GRID|   Bounds   2             -6       5                Points:          12
 RS_GRID|   Bounds   3            -18      17                Points:          36
 RS_GRID| Real space fully replicated
 RS_GRID| Group size                                                           1

 Spin 1

 Number of electrons:                                                        297.600
 Number of occupied orbitals:                                                298
 Number of molecular orbitals:                                               698

 Spin 2

 Number of electrons:                                                        278.400
 Number of occupied orbitals:                                                279
 Number of molecular orbitals:                                               698

 Number of orbital functions:                                                832
 Number of independent orbital functions:                                    832

 Extrapolation method: initial_guess

 Atomic guess: The first density matrix is obtained in terms of atomic orbitals
               and electronic configurations assigned to each atomic kind

 Guess for atomic kind: Ni_i

 Electronic structure
    Total number of core electrons                                         10.00
    Total number of valence electrons                                      18.00
    Total number of electrons                                              28.00
    Multiplicity                                                         doublet
    Alpha Electrons
    S   [  1.00  1.00] 1.00  1.00
    P   [  3.00] 3.00
    D      4.35
    Beta Electrons
    S   [  1.00  1.00] 1.00  1.00
    P   [  3.00] 3.00
    D      3.65


 *******************************************************************************
                  Iteration          Convergence                     Energy [au]
 *******************************************************************************
                          1         1.51729                    -167.067424631347
                          2         15.3902                    -156.642654318634
                          3         2.33433                    -168.319355313541
                          4        0.206730                    -168.609905008081
                          5        0.814175E-01                -168.612873080494
                          6        0.173318E-01                -168.613470181066
                          7        0.290432E-02                -168.613543571401
                          8        0.311825E-02                -168.613543401474
                          9        0.179670E-03                -168.613544404477
                         10        0.169386E-02                -168.613544207811
                         11        0.473341E-03                -168.613544360253
                         12        0.165417E-03                -168.613544400419
                         13        0.162622E-03                -168.613544401489
                         14        0.158325E-03                -168.613544403900
                         15        0.177007E-03                -168.613544402509
                         16        0.138916E-03                -168.613544404900
                         17        0.934549E-04                -168.613544406149
                         18        0.119916E-03                -168.613544405789
                         19        0.131607E-03                -168.613544405591
                         20        0.169309E-03                -168.613544404773
                         21        0.551337E-04                -168.613544406656
                         22        0.382664E-04                -168.613544406759
                         23        0.378942E-04                -168.613544406765
                         24        0.381089E-04                -168.613544406765
                         25        0.390835E-04                -168.613544406759
                         26        0.308614E-04                -168.613544406841
                         27        0.205044E-04                -168.613544406892
                         28        0.200942E-04                -168.613544406893
                         29        0.199375E-04                -168.613544406893
                         30        0.200198E-04                -168.613544406894
                         31        0.161325E-04                -168.613544406903
                         32        0.330614E-05                -168.613544406925
                         33        0.238713E-05                -168.613544406926
                         34        0.265439E-05                -168.613544406926
                         35        0.277073E-05                -168.613544406926
                         36        0.335175E-05                -168.613544406926
                         37        0.148809E-05                -168.613544406927
                         38        0.133447E-05                -168.613544406927
                         39        0.918735E-06                -168.613544406927

 Energy components [Hartree]           Total Energy ::         -168.613544406927
                                        Band Energy ::          -26.569761966525
                                     Kinetic Energy ::           97.306723392622
                                   Potential Energy ::         -265.920267799548
                                      Virial (-V/T) ::            2.732804666812
                                        Core Energy ::         -299.567979157577
                                          XC Energy ::          -16.227189041387
                                     Coulomb Energy ::          147.181623792037
                       Total Pseudopotential Energy ::         -396.961043505191
                       Local Pseudopotential Energy ::         -362.648291121960
                    Nonlocal Pseudopotential Energy ::          -34.312752383230
                                        Confinement ::            0.863409549921

 Orbital energies  State     Spin  L     Occupation   Energy[a.u.]    Energy[eV]

                       1    alpha  0          1.000      -4.172666   -113.544030
                       2    alpha  0          1.000      -0.181431     -4.936983
                       1     beta  0          1.000      -4.140640   -112.672541
                       2     beta  0          1.000      -0.176372     -4.799339

                       1    alpha  1          3.000      -2.578739    -70.171064
                       1     beta  1          3.000      -2.547579    -69.323162

                       1    alpha  2          4.350      -0.327039     -8.899191
                       1     beta  2          3.650      -0.300569     -8.178887


 Total Electron Density at R=0:                                         0.030422

 Guess for atomic kind: Ni_b

 Electronic structure
    Total number of core electrons                                         10.00
    Total number of valence electrons                                      18.00
    Total number of electrons                                              28.00
    Multiplicity                                                         doublet
    Alpha Electrons
    S   [  1.00  1.00] 1.00  1.00
    P   [  3.00] 3.00
    D      4.25
    Beta Electrons
    S   [  1.00  1.00] 1.00  1.00
    P   [  3.00] 3.00
    D      3.75


 *******************************************************************************
                  Iteration          Convergence                     Energy [au]
 *******************************************************************************
                          1         1.51687                    -167.065012761055
                          2         14.9817                    -156.620431300845
                          3         2.25575                    -168.317311438693
                          4        0.189210                    -168.607926092750
                          5        0.708658E-01                -168.610773319290
                          6        0.122256E-01                -168.611238205502
                          7        0.598421E-02                -168.611272268995
                          8        0.528277E-02                -168.611272438110
                          9        0.104644E-02                -168.611275321653
                         10        0.260234E-02                -168.611274926630
                         11        0.975322E-03                -168.611275328217
                         12        0.161067E-03                -168.611275447773
                         13        0.147413E-03                -168.611275446839
                         14        0.115114E-03                -168.611275449434
                         15        0.167217E-03                -168.611275445436
                         16        0.255374E-04                -168.611275450531
                         17        0.418369E-04                -168.611275450414
                         18        0.393709E-04                -168.611275450477
                         19        0.239931E-04                -168.611275450542
                         20        0.173885E-04                -168.611275450557
                         21        0.851368E-05                -168.611275450578
                         22        0.849928E-05                -168.611275450580
                         23        0.544937E-05                -168.611275450584
                         24        0.540003E-05                -168.611275450586
                         25        0.613371E-05                -168.611275450584
                         26        0.311593E-06                -168.611275450588

 Energy components [Hartree]           Total Energy ::         -168.611275450588
                                        Band Energy ::          -26.568680144499
                                     Kinetic Energy ::           97.303659243130
                                   Potential Energy ::         -265.914934693718
                                      Virial (-V/T) ::            2.732835915546
                                        Core Energy ::         -299.566189183323
                                          XC Energy ::          -16.224592878785
                                     Coulomb Energy ::          147.179506611520
                       Total Pseudopotential Energy ::         -396.956189041778
                       Local Pseudopotential Energy ::         -362.645043136649
                    Nonlocal Pseudopotential Energy ::          -34.311145905129
                                        Confinement ::            0.863406153250

 Orbital energies  State     Spin  L     Occupation   Energy[a.u.]    Energy[eV]

                       1    alpha  0          1.000      -4.168335   -113.426177
                       2    alpha  0          1.000      -0.180730     -4.917906
                       1     beta  0          1.000      -4.145459   -112.803683
                       2     beta  0          1.000      -0.177117     -4.819606

                       1    alpha  1          3.000      -2.574525    -70.056390
                       1     beta  1          3.000      -2.552268    -69.450746

                       1    alpha  2          4.250      -0.323446     -8.801405
                       1     beta  2          3.750      -0.304537     -8.286881


 Total Electron Density at R=0:                                         0.030429

 Spin 1
 Re-scaling the density matrix to get the right number of electrons for spin 1
                  # Electrons              Trace(P)               Scaling factor
                        297.600             297.600                        1.000

 Spin 2
 Re-scaling the density matrix to get the right number of electrons for spin 2
                  # Electrons              Trace(P)               Scaling factor
                        278.400             278.400                        1.000


 SCF WAVEFUNCTION OPTIMIZATION

  Step     Update method      Time    Convergence         Total energy    Change
  ------------------------------------------------------------------------------
     1 NoMix/Diag. 0.80E-01    1.4     0.87318318     -5426.4438273750 -5.43E+03
     2 Broy./Diag. 0.80E-01    1.5     0.01454654     -5316.3069396198  1.10E+02
     3 Broy./Diag. 0.80E-01    1.5     0.05222884     -5352.6356956721 -3.63E+01
     4 Broy./Diag. 0.80E-01    1.5     0.00297451     -5416.3378378416 -6.37E+01
[...]
   145 Broy./Diag. 0.80E-01    1.5     0.00450121     -5417.9792138434  1.15E-01
   146 Broy./Diag. 0.80E-01    1.5     0.02391832     -5417.9010806867  7.81E-02
   147 Broy./Diag. 0.80E-01    1.5     0.01331127     -5417.8818571213  1.92E-02
   148 Broy./Diag. 0.80E-01    1.5     0.00523393     -5417.7975548020  8.43E-02
   149 Broy./Diag. 0.80E-01    1.5     0.01339388     -5417.7845941245  1.30E-02
   150 Broy./Diag. 0.80E-01    1.5     0.00467393     -5417.7941851182 -9.59E-03
   151 Broy./Diag. 0.80E-01    1.5     0.00621466     -5417.7767995038  1.74E-02
   152 Broy./Diag. 0.80E-01    1.5     0.00104676     -5417.7689215392  7.88E-03
   153 Broy./Diag. 0.80E-01    1.5     0.00520666     -5417.7511761395  1.77E-02
   154 Broy./Diag. 0.80E-01    1.5     0.00093007     -5417.7143081495  3.69E-02
   155 Broy./Diag. 0.80E-01    1.5     0.00269275     -5417.7105774451  3.73E-03
   156 Broy./Diag. 0.80E-01    1.5     0.00268305     -5417.7114743151 -8.97E-04
   157 Broy./Diag. 0.80E-01    1.5     0.00372140     -5417.7329455563 -2.15E-02
   158 Broy./Diag. 0.80E-01    1.5     0.00356133     -5417.7415339092 -8.59E-03
   159 Broy./Diag. 0.80E-01    1.5     0.00674392     -5417.8141745495 -7.26E-02
   160 Broy./Diag. 0.80E-01    1.5     0.01500575     -5417.9124845312 -9.83E-02
   161 Broy./Diag. 0.80E-01    1.5     0.00225558     -5417.8709764435  4.15E-02
   162 Broy./Diag. 0.80E-01    1.5     0.00610554     -5417.7970433325  7.39E-02
   163 Broy./Diag. 0.80E-01    1.5     0.00403182     -5417.7292272381  6.78E-02
   164 Broy./Diag. 0.80E-01    1.5     0.00272559     -5417.7396059255 -1.04E-02
   165 Broy./Diag. 0.80E-01    1.5     0.00435640     -5417.7151355449  2.45E-02
   166 Broy./Diag. 0.80E-01    1.5     0.00420403     -5417.6780242221  3.71E-02
   167 Broy./Diag. 0.80E-01    1.5     0.00444158     -5417.7268872513 -4.89E-02
   168 Broy./Diag. 0.80E-01    1.5     0.00483911     -5417.7678498627 -4.10E-02
   169 Broy./Diag. 0.80E-01    1.5     0.00777762     -5417.7772461652 -9.40E-03
   170 Broy./Diag. 0.80E-01    1.5     0.00420811     -5417.7422353073  3.50E-02
   171 Broy./Diag. 0.80E-01    1.5     0.00134770     -5417.7855151563 -4.33E-02
   172 Broy./Diag. 0.80E-01    1.5     0.00141647     -5417.7947086471 -9.19E-03
   173 Broy./Diag. 0.80E-01    1.5     0.00198683     -5417.8094921197 -1.48E-02
   174 Broy./Diag. 0.80E-01    1.5     0.00533385     -5417.8148282577 -5.34E-03
   175 Broy./Diag. 0.80E-01    1.5     0.00306233     -5417.7974243214  1.74E-02
   176 Broy./Diag. 0.80E-01    1.5     0.00652878     -5417.7996900523 -2.27E-03
   177 Broy./Diag. 0.80E-01    1.5     0.00464457     -5417.7861115301  1.36E-02
   178 Broy./Diag. 0.80E-01    1.5     0.00319795     -5417.7288224701  5.73E-02
   179 Broy./Diag. 0.80E-01    1.5     0.00823918     -5417.7516855706 -2.29E-02
   180 Broy./Diag. 0.80E-01    1.5     0.00237932     -5417.7131273803  3.86E-02
   181 Broy./Diag. 0.80E-01    1.5     0.00783619     -5417.7284632892 -1.53E-02
   182 Broy./Diag. 0.80E-01    1.5     0.01117379     -5417.6874307505  4.10E-02
   183 Broy./Diag. 0.80E-01    1.5     0.01638811     -5417.7386323220 -5.12E-02
   184 Broy./Diag. 0.80E-01    1.5     0.00642077     -5417.7583351688 -1.97E-02
   185 Broy./Diag. 0.80E-01    1.5     0.03663922     -5417.7546923120  3.64E-03
   186 Broy./Diag. 0.80E-01    1.5     0.01451369     -5417.4572260481  2.97E-01
   187 Broy./Diag. 0.80E-01    1.5     0.03107142     -5417.2856607095  1.72E-01
   188 Broy./Diag. 0.80E-01    1.5     0.00675112     -5416.7966475210  4.89E-01
   189 Broy./Diag. 0.80E-01    1.5     0.01769061     -5416.9845989087 -1.88E-01
   190 Broy./Diag. 0.80E-01    1.5     0.01099388     -5417.3831719764 -3.99E-01
   191 Broy./Diag. 0.80E-01    1.5     0.00242070     -5417.4575376042 -7.44E-02
   192 Broy./Diag. 0.80E-01    1.5     0.01710924     -5417.4686274570 -1.11E-02
   193 Broy./Diag. 0.80E-01    1.5     0.01182996     -5417.5246276127 -5.60E-02
   194 Broy./Diag. 0.80E-01    1.5     0.00626163     -5417.3686035894  1.56E-01
   195 Broy./Diag. 0.80E-01    1.5     0.00417147     -5417.1286868773  2.40E-01
   196 Broy./Diag. 0.80E-01    1.5     0.00512440     -5417.2651275788 -1.36E-01
   197 Broy./Diag. 0.80E-01    1.5     0.01388677     -5417.2849587346 -1.98E-02
   198 Broy./Diag. 0.80E-01    1.5     0.00404520     -5417.1318537019  1.53E-01
   199 Broy./Diag. 0.80E-01    1.5     0.00461767     -5417.2042896893 -7.24E-02
   200 Broy./Diag. 0.80E-01    1.5     0.00690603     -5417.3372610564 -1.33E-01
   201 Broy./Diag. 0.80E-01    1.5     0.00727171     -5417.1111880672  2.26E-01
   202 Broy./Diag. 0.80E-01    1.5     0.00483301     -5417.0708646902  4.03E-02
   203 Broy./Diag. 0.80E-01    1.5     0.01604476     -5417.1665867252 -9.57E-02
   204 Broy./Diag. 0.80E-01    1.5     0.00690131     -5417.0276051572  1.39E-01
   205 Broy./Diag. 0.80E-01    1.5     0.00791140     -5416.9205825900  1.07E-01
   206 Broy./Diag. 0.80E-01    1.5     0.00594435     -5416.8308373145  8.97E-02
   207 Broy./Diag. 0.80E-01    1.5     0.02007362     -5416.8732008175 -4.24E-02
   208 Broy./Diag. 0.80E-01    1.5     0.02080283     -5417.1839429199 -3.11E-01
   209 Broy./Diag. 0.80E-01    1.5     0.00911659     -5417.7174194175 -5.33E-01
   210 Broy./Diag. 0.80E-01    1.5     0.00493452     -5417.7825360761 -6.51E-02
   211 Broy./Diag. 0.80E-01    1.5     0.00612423     -5417.6282559169  1.54E-01
   212 Broy./Diag. 0.80E-01    1.5     0.00641107     -5417.5777287425  5.05E-02
   213 Broy./Diag. 0.80E-01    1.5     0.00510168     -5417.7507612319 -1.73E-01
   214 Broy./Diag. 0.80E-01    1.5     0.01966183     -5417.7420263308  8.73E-03
   215 Broy./Diag. 0.80E-01    1.5     0.01322915     -5417.4860825984  2.56E-01
   216 Broy./Diag. 0.80E-01    1.5     0.00617433     -5417.1560111843  3.30E-01
   217 Broy./Diag. 0.80E-01    1.5     0.00946786     -5417.1230700463  3.29E-02
   218 Broy./Diag. 0.80E-01    1.5     0.01031760     -5417.2437204987 -1.21E-01
   219 Broy./Diag. 0.80E-01    1.5     0.00337105     -5417.3440200688 -1.00E-01
   220 Broy./Diag. 0.80E-01    1.5     0.00885338     -5417.4987098385 -1.55E-01
   221 Broy./Diag. 0.80E-01    1.5     0.01562752     -5417.4514084966  4.73E-02
   222 Broy./Diag. 0.80E-01    1.5     0.00684659     -5417.4637836050 -1.24E-02
   223 Broy./Diag. 0.80E-01    1.5     0.00070488     -5417.5817403453 -1.18E-01
   224 Broy./Diag. 0.80E-01    1.5     0.01038047     -5417.5379179841  4.38E-02
   225 Broy./Diag. 0.80E-01    1.5     0.02355994     -5417.5010292839  3.69E-02
   226 Broy./Diag. 0.80E-01    1.5     0.00529522     -5417.1549424997  3.46E-01
   227 Broy./Diag. 0.80E-01    1.5     0.00816467     -5417.1486852174  6.26E-03
   228 Broy./Diag. 0.80E-01    1.5     0.02029832     -5417.1109079622  3.78E-02
   229 Broy./Diag. 0.80E-01    1.5     0.00939260     -5417.3675188921 -2.57E-01
   230 Broy./Diag. 0.80E-01    1.5     0.01103212     -5417.2744178179  9.31E-02
   231 Broy./Diag. 0.80E-01    1.5     0.01427117     -5417.1975777731  7.68E-02
   232 Broy./Diag. 0.80E-01    1.5     0.00269059     -5417.0604671010  1.37E-01
   233 Broy./Diag. 0.80E-01    1.5     0.04081717     -5417.1321288277 -7.17E-02
   234 Broy./Diag. 0.80E-01    1.5     0.04882154     -5416.9766872229  1.55E-01
   235 Broy./Diag. 0.80E-01    1.5     0.02606513     -5416.9156883069  6.10E-02
   236 Broy./Diag. 0.80E-01    1.5     0.03071771     -5416.5632990961  3.52E-01
   237 Broy./Diag. 0.80E-01    1.5     0.00899191     -5416.0051434773  5.58E-01
   238 Broy./Diag. 0.80E-01    1.5     0.03094646     -5416.0301912974 -2.50E-02
   239 Broy./Diag. 0.80E-01    1.5     0.01046877     -5416.1548905850 -1.25E-01
   240 Broy./Diag. 0.80E-01    1.5     0.01425494     -5416.6033697330 -4.48E-01
   241 Broy./Diag. 0.80E-01    1.5     0.01945535     -5416.4278295599  1.76E-01
   242 Broy./Diag. 0.80E-01    1.5     0.01250616     -5416.1797425330  2.48E-01
   243 Broy./Diag. 0.80E-01    1.5     0.01865292     -5415.7600306445  4.20E-01
   244 Broy./Diag. 0.80E-01    1.5     0.01120532     -5416.1709023272 -4.11E-01
   245 Broy./Diag. 0.80E-01    1.5     0.02055882     -5416.1264241529  4.45E-02
   246 Broy./Diag. 0.80E-01    1.5     0.01426332     -5415.9010112220  2.25E-01
   247 Broy./Diag. 0.80E-01    1.5     0.02397496     -5415.7802214710  1.21E-01
   248 Broy./Diag. 0.80E-01    1.5     0.04578886     -5415.9878086996 -2.08E-01
   249 Broy./Diag. 0.80E-01    1.5     0.04524513     -5416.5307992198 -5.43E-01
   250 Broy./Diag. 0.80E-01    1.5     0.08041522     -5416.4487307987  8.21E-02
   251 Broy./Diag. 0.80E-01    1.5     0.06558194     -5416.8393127235 -3.91E-01
   252 Broy./Diag. 0.80E-01    1.5     0.16686946     -5417.0078100648 -1.68E-01
   253 Broy./Diag. 0.80E-01    1.5     0.16298240     -5417.0239330481 -1.61E-02
   254 Broy./Diag. 0.80E-01    1.5     0.13086492     -5415.1322052425  1.89E+00
   255 Broy./Diag. 0.80E-01    1.5     0.01106820     -5416.2544810790 -1.12E+00
   256 Broy./Diag. 0.80E-01    1.5     0.02342296     -5416.5130923767 -2.59E-01
   257 Broy./Diag. 0.80E-01    1.5     0.13094199     -5416.9125216210 -3.99E-01
   258 Broy./Diag. 0.80E-01    1.5     0.05883985     -5417.9342873624 -1.02E+00
   259 Broy./Diag. 0.80E-01    1.5     0.01540259     -5418.0603193722 -1.26E-01
   260 Broy./Diag. 0.80E-01    1.5     0.04151381     -5418.1701426224 -1.10E-01
   261 Broy./Diag. 0.80E-01    1.5     0.04514708     -5417.7183603086  4.52E-01
   262 Broy./Diag. 0.80E-01    1.5     0.01539924     -5417.8234564595 -1.05E-01
   263 Broy./Diag. 0.80E-01    1.5     0.02281829     -5417.9947887566 -1.71E-01
   264 Broy./Diag. 0.80E-01    1.5     0.00871189     -5418.2644464482 -2.70E-01
   265 Broy./Diag. 0.80E-01    1.5     0.02098805     -5418.2450043733  1.94E-02
   266 Broy./Diag. 0.80E-01    1.5     0.05031032     -5418.4693674559 -2.24E-01
   267 Broy./Diag. 0.80E-01    1.5     0.08039325     -5418.2652190807  2.04E-01
   268 Broy./Diag. 0.80E-01    1.5     0.08654795     -5418.2472977692  1.79E-02
   269 Broy./Diag. 0.80E-01    1.5     0.05283878     -5418.0826552906  1.65E-01
   270 Broy./Diag. 0.80E-01    1.5     0.01933905     -5418.0610852287  2.16E-02
   271 Broy./Diag. 0.80E-01    1.5     0.04921293     -5417.7456008473  3.15E-01
   272 Broy./Diag. 0.80E-01    1.5     0.00168291     -5417.2955718381  4.50E-01
   273 Broy./Diag. 0.80E-01    1.5     0.12701111     -5417.2868589802  8.71E-03
   274 Broy./Diag. 0.80E-01    1.5     0.04847499     -5416.9280133993  3.59E-01
   275 Broy./Diag. 0.80E-01    1.5     0.00975557     -5417.0014076731 -7.34E-02
   276 Broy./Diag. 0.80E-01    1.5     0.05771600     -5417.0143496590 -1.29E-02
   277 Broy./Diag. 0.80E-01    1.5     0.00374967     -5417.4247618510 -4.10E-01
   278 Broy./Diag. 0.80E-01    1.5     0.01745310     -5417.4458161160 -2.11E-02
   279 Broy./Diag. 0.80E-01    1.5     0.02019878     -5417.4700647658 -2.42E-02
   280 Broy./Diag. 0.80E-01    1.5     0.01643912     -5417.4544310418  1.56E-02
   281 Broy./Diag. 0.80E-01    1.5     0.01361892     -5417.4640732943 -9.64E-03
   282 Broy./Diag. 0.80E-01    1.5     0.01005597     -5417.4287458647  3.53E-02
   283 Broy./Diag. 0.80E-01    1.5     0.00856328     -5417.3636038456  6.51E-02
   284 Broy./Diag. 0.80E-01    1.5     0.02632478     -5417.3843421511 -2.07E-02
   285 Broy./Diag. 0.80E-01    1.5     0.00868174     -5417.4281041918 -4.38E-02
   286 Broy./Diag. 0.80E-01    1.5     0.00401459     -5417.4673260176 -3.92E-02
   287 Broy./Diag. 0.80E-01    1.5     0.01354832     -5417.5056018678 -3.83E-02
   288 Broy./Diag. 0.80E-01    1.5     0.00331448     -5417.5137958750 -8.19E-03
   289 Broy./Diag. 0.80E-01    1.5     0.01134360     -5417.6234438060 -1.10E-01
   290 Broy./Diag. 0.80E-01    1.5     0.00354995     -5417.7938271388 -1.70E-01
   291 Broy./Diag. 0.80E-01    1.5     0.01347048     -5417.8644402783 -7.06E-02
   292 Broy./Diag. 0.80E-01    1.5     0.01147395     -5417.8590072450  5.43E-03
   293 Broy./Diag. 0.80E-01    1.5     0.00348668     -5417.6863105744  1.73E-01
   294 Broy./Diag. 0.80E-01    1.5     0.01808985     -5417.8067833335 -1.20E-01
   295 Broy./Diag. 0.80E-01    1.5     0.00812463     -5417.9064775086 -9.97E-02
   296 Broy./Diag. 0.80E-01    1.5     0.01202449     -5417.8897341253  1.67E-02
   297 Broy./Diag. 0.80E-01    1.5     0.01583814     -5417.9408957547 -5.12E-02
   298 Broy./Diag. 0.80E-01    1.5     0.01017279     -5417.8317422605  1.09E-01
   299 Broy./Diag. 0.80E-01    1.5     0.01109518     -5417.6523918981  1.79E-01
   300 Broy./Diag. 0.80E-01    1.5     0.02606477     -5417.8507263046 -1.98E-01
   301 Broy./Diag. 0.80E-01    1.5     0.01804922     -5417.4303174800  4.20E-01
   302 Broy./Diag. 0.80E-01    1.5     0.04196189     -5417.3417449966  8.86E-02
   303 Broy./Diag. 0.80E-01    1.5     0.02502216     -5417.6105497068 -2.69E-01
   304 Broy./Diag. 0.80E-01    1.5     0.01988838     -5417.7061809504 -9.56E-02
   305 Broy./Diag. 0.80E-01    1.5     0.06875437     -5417.7471292376 -4.09E-02
   306 Broy./Diag. 0.80E-01    1.5     0.04169690     -5418.3196313459 -5.73E-01
   307 Broy./Diag. 0.80E-01    1.5     0.06620268     -5418.4073730901 -8.77E-02
   308 Broy./Diag. 0.80E-01    1.5     0.06502581     -5417.8614341592  5.46E-01
   309 Broy./Diag. 0.80E-01    1.5     0.04667324     -5417.8099065224  5.15E-02
   310 Broy./Diag. 0.80E-01    1.5     0.01827030     -5417.6473706303  1.63E-01
   311 Broy./Diag. 0.80E-01    1.5     0.01829038     -5417.7790104505 -1.32E-01
   312 Broy./Diag. 0.80E-01    1.5     0.08434733     -5417.6370417778  1.42E-01
   313 Broy./Diag. 0.80E-01    1.5     0.06673784     -5417.3202014145  3.17E-01
   314 Broy./Diag. 0.80E-01    1.5     0.03054779     -5416.8252365306  4.95E-01
   315 Broy./Diag. 0.80E-01    1.5     0.02653672     -5416.9101671713 -8.49E-02
   316 Broy./Diag. 0.80E-01    1.5     0.07509592     -5416.9667819538 -5.66E-02
   317 Broy./Diag. 0.80E-01    1.5     0.02443097     -5417.6825342741 -7.16E-01
   318 Broy./Diag. 0.80E-01    1.5     0.07701865     -5417.5439262736  1.39E-01
   319 Broy./Diag. 0.80E-01    1.5     0.14961591     -5417.4576331677  8.63E-02
   320 Broy./Diag. 0.80E-01    1.5     0.03506634     -5417.3555759452  1.02E-01
   321 Broy./Diag. 0.80E-01    1.5     0.00693673     -5416.6815429571  6.74E-01
   322 Broy./Diag. 0.80E-01    1.5     0.15165890     -5417.0835228313 -4.02E-01
   323 Broy./Diag. 0.80E-01    1.5     0.04636460     -5418.8664196034 -1.78E+00
   324 Broy./Diag. 0.80E-01    1.5     0.06057247     -5419.0012810352 -1.35E-01
   325 Broy./Diag. 0.80E-01    1.5     0.18771542     -5419.0089096012 -7.63E-03
   326 Broy./Diag. 0.80E-01    1.5     0.09938041     -5417.3213749719  1.69E+00
   327 Broy./Diag. 0.80E-01    1.5     0.06525656     -5418.4667904080 -1.15E+00
   328 Broy./Diag. 0.80E-01    1.5     0.07703422     -5418.3532005773  1.14E-01
   329 Broy./Diag. 0.80E-01    1.5     0.02378625     -5417.7647212864  5.88E-01
   330 Broy./Diag. 0.80E-01    1.5     0.04723280     -5417.7161920384  4.85E-02
   331 Broy./Diag. 0.80E-01    1.5     0.03571831     -5417.7904019874 -7.42E-02
   332 Broy./Diag. 0.80E-01    1.5     0.03106172     -5417.3038179349  4.87E-01
   333 Broy./Diag. 0.80E-01    1.5     0.03802533     -5417.2755962678  2.82E-02
   334 Broy./Diag. 0.80E-01    1.5     0.00918051     -5417.1564575009  1.19E-01
   335 Broy./Diag. 0.80E-01    1.5     0.06606769     -5417.1660407672 -9.58E-03
   336 Broy./Diag. 0.80E-01    1.5     0.07044367     -5417.1789507983 -1.29E-02
   337 Broy./Diag. 0.80E-01    1.5     0.16464275     -5416.8036989553  3.75E-01
   338 Broy./Diag. 0.80E-01    1.5     0.16514460     -5417.7955115230 -9.92E-01
   339 Broy./Diag. 0.80E-01    1.5     0.16702365     -5417.7011341340  9.44E-02
   340 Broy./Diag. 0.80E-01    1.5     0.16957442     -5418.3110946867 -6.10E-01
   341 Broy./Diag. 0.80E-01    1.5     0.06158687     -5418.3953233135 -8.42E-02
   342 Broy./Diag. 0.80E-01    1.5     0.07459804     -5417.2160106987  1.18E+00
   343 Broy./Diag. 0.80E-01    1.5     0.13256862     -5418.0434667918 -8.27E-01
   344 Broy./Diag. 0.80E-01    1.5     0.16463843     -5417.1182464703  9.25E-01
   345 Broy./Diag. 0.80E-01    1.5     0.08544230     -5416.0817832606  1.04E+00
   346 Broy./Diag. 0.80E-01    1.5     0.02640901     -5417.1229899511 -1.04E+00
   347 Broy./Diag. 0.80E-01    1.5     0.09503337     -5417.7410377278 -6.18E-01
   348 Broy./Diag. 0.80E-01    1.5     0.10256323     -5418.0517698159 -3.11E-01
   349 Broy./Diag. 0.80E-01    1.5     0.19747989     -5416.6835751989  1.37E+00
   350 Broy./Diag. 0.80E-01    1.5     0.26055147     -5417.7150152932 -1.03E+00
   351 Broy./Diag. 0.80E-01    1.5     0.11153341     -5416.6248621614  1.09E+00
   352 Broy./Diag. 0.80E-01    1.5     0.23454788     -5416.8980805327 -2.73E-01
   353 Broy./Diag. 0.80E-01    1.5     0.11352034     -5416.8236055921  7.45E-02
   354 Broy./Diag. 0.80E-01    1.5     0.01255577     -5415.8674593746  9.56E-01
   355 Broy./Diag. 0.80E-01    1.5     0.01290557     -5416.0933279942 -2.26E-01
   356 Broy./Diag. 0.80E-01    1.5     0.00776566     -5416.2898369878 -1.97E-01
   357 Broy./Diag. 0.80E-01    1.5     0.07822923     -5416.1244631768  1.65E-01
   358 Broy./Diag. 0.80E-01    1.5     0.07387753     -5416.7153331017 -5.91E-01
   359 Broy./Diag. 0.80E-01    1.5     0.00643524     -5417.8855986378 -1.17E+00
   360 Broy./Diag. 0.80E-01    1.5     0.36799295     -5418.0816270548 -1.96E-01
   361 Broy./Diag. 0.80E-01    1.5     0.07028298     -5418.6790834309 -5.97E-01
   362 Broy./Diag. 0.80E-01    1.5     0.04305748     -5418.5927939686  8.63E-02
   363 Broy./Diag. 0.80E-01    1.5     0.07078627     -5416.3417188245  2.25E+00
   364 Broy./Diag. 0.80E-01    1.5     0.18588112     -5417.5350022601 -1.19E+00
   365 Broy./Diag. 0.80E-01    1.5     0.11886144     -5417.8457354411 -3.11E-01
   366 Broy./Diag. 0.80E-01    1.5     0.01043951     -5417.0026371373  8.43E-01
   367 Broy./Diag. 0.80E-01    1.5     0.03072304     -5417.1488361892 -1.46E-01
   368 Broy./Diag. 0.80E-01    1.5     0.06517336     -5418.7507208701 -1.60E+00
   369 Broy./Diag. 0.80E-01    1.5     0.21072969     -5418.4747853719  2.76E-01
   370 Broy./Diag. 0.80E-01    1.5     0.11713377     -5420.4880791666 -2.01E+00
   371 Broy./Diag. 0.80E-01    1.5     0.06418735     -5423.0184966656 -2.53E+00
   372 Broy./Diag. 0.80E-01    1.5     0.08249127     -5422.0512919470  9.67E-01
   373 Broy./Diag. 0.80E-01    1.5     0.06062444     -5418.4199719919  3.63E+00
   374 Broy./Diag. 0.80E-01    1.5     0.11854176     -5419.7912327585 -1.37E+00
   375 Broy./Diag. 0.80E-01    1.5     0.07063476     -5417.5681243298  2.22E+00
   376 Broy./Diag. 0.80E-01    1.5     0.03795118     -5418.0654342725 -4.97E-01
   377 Broy./Diag. 0.80E-01    1.5     0.06653271     -5417.0353725714  1.03E+00
   378 Broy./Diag. 0.80E-01    1.5     0.05856362     -5411.4500650629  5.59E+00
   379 Broy./Diag. 0.80E-01    1.5     0.03579868     -5411.5125317682 -6.25E-02
   380 Broy./Diag. 0.80E-01    1.5     0.07394747     -5414.7516485536 -3.24E+00
   381 Broy./Diag. 0.80E-01    1.5     0.04970310     -5417.8210425369 -3.07E+00
   382 Broy./Diag. 0.80E-01    1.5     0.09649200     -5417.0203768724  8.01E-01
   383 Broy./Diag. 0.80E-01    1.5     0.05118580     -5418.1024264111 -1.08E+00
   384 Broy./Diag. 0.80E-01    1.5     0.09331713     -5418.1625739753 -6.01E-02
   385 Broy./Diag. 0.80E-01    1.5     0.10447461     -5417.9699880237  1.93E-01
   386 Broy./Diag. 0.80E-01    1.5     0.08438980     -5417.9116916049  5.83E-02
   387 Broy./Diag. 0.80E-01    1.5     0.04131878     -5418.7111744500 -7.99E-01
   388 Broy./Diag. 0.80E-01    1.5     0.03702594     -5417.8405532374  8.71E-01
   389 Broy./Diag. 0.80E-01    1.5     0.04508305     -5417.3909831817  4.50E-01
   390 Broy./Diag. 0.80E-01    1.5     0.12177274     -5417.9625644859 -5.72E-01
