 DBCSR| CPU Multiplication driver                                           XSMM (U)
 DBCSR| Multrec recursion limit                                              512 (U)
 DBCSR| Multiplication stack size                                           1000 (D)
 DBCSR| Maximum elements for images                                    UNLIMITED (U)
 DBCSR| Multiplicative factor virtual images                                   1 (U)
 DBCSR| Use multiplication densification                                       T (D)
 DBCSR| Multiplication size stacks                                             3 (U)
 DBCSR| Use memory pool for CPU allocation                                     F (U)
 DBCSR| Number of 3D layers                                               SINGLE (U)
 DBCSR| Use MPI memory allocation                                              F (U)
 DBCSR| Use RMA algorithm                                                      F (U)
 DBCSR| Use Communication thread                                               T (U)
 DBCSR| Communication thread load                                             87 (D)
 DBCSR| MPI: My process id                                                     0
 DBCSR| MPI: Number of processes                                             128
 DBCSR| OMP: Current number of threads                                         1
 DBCSR| OMP: Max number of threads                                             1
 DBCSR| Split modifier for TAS multiplication algorithm                  1.0E+00 (U)


  **** **** ******  **  PROGRAM STARTED AT               2023-02-15 16:49:15.062
 ***** ** ***  *** **   PROGRAM STARTED ON                             nid004131
 **    ****   ******    PROGRAM STARTED BY                                cahart
 ***** **    ** ** **   PROGRAM PROCESS ID                                 74222
  **** **  *******  **  PROGRAM STARTED IN /mnt/lustre/a2fs-work2/work/e05/e05/c
                                           ahart/postdoc/masters/ni/archer2/slab
                                           /optimise/magnetisation/scf_1e-4_temp
                                           -2000_mos-1000_alpha-0.08_beta-1.5_pe
                                           riodic-xyz/search/0.42_0.8

 CP2K| version string:                 CP2K version 2023.1 (Development Version)
 CP2K| source code revision number:                                  git:964cd58
 CP2K| cp2kflags: omp libint fftw3 libxc elpa parallel scalapack xsmm plumed2 mk
 CP2K|            l
 CP2K| is freely available from                            https://www.cp2k.org/
 CP2K| Program compiled at                          Mon 13 Feb 17:05:14 GMT 2023
 CP2K| Program compiled on                                                  ln01
 CP2K| Program compiled for                                              ARCHER2
 CP2K| Data directory path    /work/e05/e05/cahart/cp2k/cp2k-2023.1/cp2k-2023.1-
 CP2K| Input file name                                                  cp2k.inp

 GLOBAL| Force Environment number                                              1
 GLOBAL| Basis set file name                                        BASIS_MOLOPT
 GLOBAL| Potential file name                                      GTH_POTENTIALS
 GLOBAL| MM Potential file name                                     MM_POTENTIAL
 GLOBAL| Coordinate file name                                      __STD_INPUT__
 GLOBAL| Method name                                                        CP2K
 GLOBAL| Project name                                                    Ni_bulk
 GLOBAL| Run type                                                         ENERGY
 GLOBAL| FFT library                                                       FFTW3
 GLOBAL| Diagonalization library                                            ELPA
 GLOBAL| DGEMM library                                                      BLAS
 GLOBAL| Minimum number of eigenvectors for ELPA usage                        16
 GLOBAL| Orthonormality check for eigenvectors                          DISABLED
 GLOBAL| Matrix multiplication library                                 ScaLAPACK
 GLOBAL| All-to-all communication in single precision                          F
 GLOBAL| FFTs using library dependent lengths                                  F
 GLOBAL| Grid backend                                                       AUTO
 GLOBAL| Global print level                                               MEDIUM
 GLOBAL| MPI I/O enabled                                                       T
 GLOBAL| Total number of message passing processes                           128
 GLOBAL| Number of threads for this process                                    1
 GLOBAL| This output is from process                                           0
 GLOBAL| Stack size for threads created by OpenMP (OMP_STACKSIZE)        default
 GLOBAL| CPU model name                          AMD EPYC 7742 64-Core Processor
 GLOBAL| CPUID                                                              1002

 MEMORY| system memory details [Kb]
 MEMORY|                        rank 0           min           max       average
 MEMORY| MemTotal            263528088     263528088     263528088     263528088
 MEMORY| MemFree             239306020     239306020     239306020     239306020
 MEMORY| Buffers                 35024         35024         35024         35024
 MEMORY| Cached                 675780        675780        675780        675780
 MEMORY| Slab                  1454380       1454380       1454380       1454380
 MEMORY| SReclaimable           104828        104828        104828        104828
 MEMORY| MemLikelyFree       240121652     240121652     240121652     240121652


 *** Fundamental physical constants (SI units) ***

 *** Literature: B. J. Mohr and B. N. Taylor,
 ***             CODATA recommended values of the fundamental physical
 ***             constants: 2006, Web Version 5.1
 ***             http://physics.nist.gov/constants

 Speed of light in vacuum [m/s]                             2.99792458000000E+08
 Magnetic constant or permeability of vacuum [N/A**2]       1.25663706143592E-06
 Electric constant or permittivity of vacuum [F/m]          8.85418781762039E-12
 Planck constant (h) [J*s]                                  6.62606896000000E-34
 Planck constant (h-bar) [J*s]                              1.05457162825177E-34
 Elementary charge [C]                                      1.60217648700000E-19
 Electron mass [kg]                                         9.10938215000000E-31
 Electron g factor [ ]                                     -2.00231930436220E+00
 Proton mass [kg]                                           1.67262163700000E-27
 Fine-structure constant                                    7.29735253760000E-03
 Rydberg constant [1/m]                                     1.09737315685270E+07
 Avogadro constant [1/mol]                                  6.02214179000000E+23
 Boltzmann constant [J/K]                                   1.38065040000000E-23
 Atomic mass unit [kg]                                      1.66053878200000E-27
 Bohr radius [m]                                            5.29177208590000E-11

 *** Conversion factors ***

 [u] -> [a.u.]                                              1.82288848426455E+03
 [Angstrom] -> [Bohr] = [a.u.]                              1.88972613288564E+00
 [a.u.] = [Bohr] -> [Angstrom]                              5.29177208590000E-01
 [a.u.] -> [s]                                              2.41888432650478E-17
 [a.u.] -> [fs]                                             2.41888432650478E-02
 [a.u.] -> [J]                                              4.35974393937059E-18
 [a.u.] -> [N]                                              8.23872205491840E-08
 [a.u.] -> [K]                                              3.15774647902944E+05
 [a.u.] -> [kJ/mol]                                         2.62549961709828E+03
 [a.u.] -> [kcal/mol]                                       6.27509468713739E+02
 [a.u.] -> [Pa]                                             2.94210107994716E+13
 [a.u.] -> [bar]                                            2.94210107994716E+08
 [a.u.] -> [atm]                                            2.90362800883016E+08
 [a.u.] -> [eV]                                             2.72113838565563E+01
 [a.u.] -> [Hz]                                             6.57968392072181E+15
 [a.u.] -> [1/cm] (wave numbers)                            2.19474631370540E+05
 [a.u./Bohr**2] -> [1/cm]                                   5.14048714338585E+03
 

 CELL_TOP| Volume [angstrom^3]:                                       983.249569
 CELL_TOP| Vector a [angstrom     7.012     0.000     0.000   |a| =     7.011596
 CELL_TOP| Vector b [angstrom     0.000     7.012     0.000   |b| =     7.011596
 CELL_TOP| Vector c [angstrom     0.000     0.000    20.000   |c| =    20.000000
 CELL_TOP| Angle (b,c), alpha [degree]:                                90.000000
 CELL_TOP| Angle (a,c), beta  [degree]:                                90.000000
 CELL_TOP| Angle (a,b), gamma [degree]:                                90.000000
 CELL_TOP| Numerically orthorhombic:                                         YES
 CELL_TOP| Periodicity                                                       XYZ

 GENERATE|  Preliminary Number of Bonds generated:                             0
 GENERATE|  Achieved consistency in connectivity generation.

 CELL| Volume [angstrom^3]:                                           983.249569
 CELL| Vector a [angstrom]:       7.012     0.000     0.000   |a| =     7.011596
 CELL| Vector b [angstrom]:       0.000     7.012     0.000   |b| =     7.011596
 CELL| Vector c [angstrom]:       0.000     0.000    20.000   |c| =    20.000000
 CELL| Angle (b,c), alpha [degree]:                                    90.000000
 CELL| Angle (a,c), beta  [degree]:                                    90.000000
 CELL| Angle (a,b), gamma [degree]:                                    90.000000
 CELL| Numerically orthorhombic:                                             YES
 CELL| Periodicity                                                           XYZ

 CELL_REF| Volume [angstrom^3]:                                       983.249569
 CELL_REF| Vector a [angstrom     7.012     0.000     0.000   |a| =     7.011596
 CELL_REF| Vector b [angstrom     0.000     7.012     0.000   |b| =     7.011596
 CELL_REF| Vector c [angstrom     0.000     0.000    20.000   |c| =    20.000000
 CELL_REF| Angle (b,c), alpha [degree]:                                90.000000
 CELL_REF| Angle (a,c), beta  [degree]:                                90.000000
 CELL_REF| Angle (a,b), gamma [degree]:                                90.000000
 CELL_REF| Numerically orthorhombic:                                         YES
 CELL_REF| Periodicity                                                       XYZ

 *** WARNING in cryssym.F:165 :: Symmetry library SPGLIB not available ***


 *******************************************************************************
                                    Kpoints
 *******************************************************************************
 BRILLOUIN| K-point scheme                                        Monkhorst-Pack
 BRILLOUIN| K-Point grid                                             4    4    1
 BRILLOUIN| Accuracy in Symmetry determination                      0.100000E-05
 BRILLOUIN| K-Point point group symmetrization                               OFF
 BRILLOUIN| Wavefunction type                                            COMPLEX
 BRILLOUIN| List of Kpoints [2 Pi/Bohr]                                        8
 BRILLOUIN| Number           Weight            X              Y              Z
 BRILLOUIN|     1           0.12500       -0.37500       -0.37500        0.00000
 BRILLOUIN|     2           0.12500       -0.37500       -0.12500        0.00000
 BRILLOUIN|     3           0.12500       -0.37500        0.12500        0.00000
 BRILLOUIN|     4           0.12500       -0.37500        0.37500        0.00000
 BRILLOUIN|     5           0.12500       -0.12500       -0.37500        0.00000
 BRILLOUIN|     6           0.12500       -0.12500       -0.12500        0.00000
 BRILLOUIN|     7           0.12500       -0.12500        0.12500        0.00000
 BRILLOUIN|     8           0.12500       -0.12500        0.37500        0.00000
 *******************************************************************************

 *******************************************************************************
 *******************************************************************************
 **                                                                           **
 **     #####                         ##              ##                      **
 **    ##   ##            ##          ##              ##                      **
 **   ##     ##                       ##            ######                    **
 **   ##     ##  ##   ##  ##   #####  ##  ##   ####   ##    #####    #####    **
 **   ##     ##  ##   ##  ##  ##      ## ##   ##      ##   ##   ##  ##   ##   **
 **   ##  ## ##  ##   ##  ##  ##      ####     ###    ##   ######   ######    **
 **    ##  ###   ##   ##  ##  ##      ## ##      ##   ##   ##       ##        **
 **     #######   #####   ##   #####  ##  ##  ####    ##    #####   ##        **
 **           ##                                                    ##        **
 **                                                                           **
 **                                                ... make the atoms dance   **
 **                                                                           **
 **            Copyright (C) by CP2K developers group (2000-2023)             **
 **                      J. Chem. Phys. 152, 194103 (2020)                    **
 **                                                                           **
 *******************************************************************************

 *** WARNING in qs_environment.F:1456 :: Number of electrons will be ***
 *** overwritten by NELEC_ALPHA and NELEC_BETA, multiplicity will be ***
 *** ignored.                                                        ***

 Number of electrons should be                                               576
 Sum of NELEC_ALPHA and NELEC_BETA is                                    576.000

 *** WARNING in qs_environment.F:1488 :: NELEC_ALPHA is not an integer, ***
 *** many features will not be supported.                               ***


 *** WARNING in qs_environment.F:1500 :: NELEC_BETA is not an integer, ***
 *** many features will not be supported.                              ***


 *** WARNING in qs_environment.F:1532 :: More ADDED_MOs requested for beta ***
 *** spin than available.                                                  ***


 *** WARNING in qs_environment.F:1548 :: More added MOs requested than     ***
 *** available. The full set of unoccupied MOs will be used. Use           ***
 *** 'ADDED_MOS -1' to always use all available MOs and to get rid of this ***
 *** warning.                                                              ***


 DFT| Spin unrestricted (spin-polarized) Kohn-Sham calculation               UKS
 DFT| Multiplicity                                                             1
 DFT| Number of spin states                                                    2
 DFT| Charge                                                                   0
 DFT| Self-interaction correction (SIC)                                       NO
 DFT| Cutoffs: density                                              1.000000E-10
 DFT|          gradient                                             1.000000E-10
 DFT|          tau                                                  1.000000E-10
 DFT|          cutoff_smoothing_range                               0.000000E+00
 DFT| XC density smoothing                                                  NONE
 DFT| XC derivatives                                                          PW

 FUNCTIONAL| PBE:
 FUNCTIONAL| J.P.Perdew, K.Burke, M.Ernzerhof, Phys. Rev. Letter, vol. 77, n 18,
 FUNCTIONAL|  pp. 3865-3868, (1996){spin polarized}                             

 vdW POTENTIAL|                                                   Pair Potential
 vdW POTENTIAL|          DFT-D3 (Version 3.1)
 vdW POTENTIAL|          Potential Form: S. Grimme et al, JCP 132: 154104 (2010)
 vdW POTENTIAL|          Zero Damping
 vdW POTENTIAL|          Cutoff Radius [Bohr]:                             20.00
 vdW POTENTIAL|          s6 Scaling Factor:                               1.0000
 vdW POTENTIAL|          sr6 Scaling Factor:                              1.2170
 vdW POTENTIAL|          s8 Scaling Factor:                               0.7220
 vdW POTENTIAL|          Cutoff for CN calculation:                   0.1000E-05

 QS| Method:                                                                 GPW
 QS| Density plane wave grid type                        NON-SPHERICAL FULLSPACE
 QS| Number of grid levels:                                                    5
 QS| Density cutoff [a.u.]:                                                300.0
 QS| Multi grid cutoff [a.u.]: 1) grid level                               300.0
 QS|                           2) grid level                               100.0
 QS|                           3) grid level                                33.3
 QS|                           4) grid level                                11.1
 QS|                           5) grid level                                 3.7
 QS| Grid level progression factor:                                          3.0
 QS| Relative density cutoff [a.u.]:                                        30.0
 QS| Interaction thresholds: eps_pgf_orb:                                1.0E-06
 QS|                         eps_filter_matrix:                          0.0E+00
 QS|                         eps_core_charge:                            1.0E-14
 QS|                         eps_rho_gspace:                             1.0E-12
 QS|                         eps_rho_rspace:                             1.0E-12
 QS|                         eps_gvg_rspace:                             1.0E-06
 QS|                         eps_ppl:                                    1.0E-02
 QS|                         eps_ppnl:                                   1.0E-08


 ATOMIC KIND INFORMATION

  1. Atomic kind: Ni_i                                  Number of atoms:      16

     Orbital Basis Set                                        DZVP-MOLOPT-SR-GTH

       Number of orbital shell sets:                                           1
       Number of orbital shells:                                               8
       Number of primitive Cartesian functions:                                6
       Number of Cartesian basis functions:                                   31
       Number of spherical basis functions:                                   26
       Norm type:                                                              2

       Normalised Cartesian orbitals:

                        Set   Shell   Orbital            Exponent    Coefficient

                          1       1    2s               10.077428      -0.684558
                                                         5.847736      -0.844524
                                                         2.494033       1.088856
                                                         0.988355       0.395503
                                                         0.344978       0.010224
                                                         0.099466      -0.003250

                          1       2    3s               10.077428       0.096747
                                                         5.847736       0.162504
                                                         2.494033      -0.297192
                                                         0.988355      -0.319752
                                                         0.344978       0.088318
                                                         0.099466       0.118587

                          1       3    4s               10.077428       0.036437
                                                         5.847736      -0.381480
                                                         2.494033       0.003759
                                                         0.988355      -1.048256
                                                         0.344978       0.855825
                                                         0.099466      -0.176350

                          1       4    3px              10.077428      -3.133913
                                                         5.847736       3.027656
                                                         2.494033       2.353227
                                                         0.988355       0.554184
                                                         0.344978       0.019462
                                                         0.099466      -0.000291
                          1       4    3py              10.077428      -3.133913
                                                         5.847736       3.027656
                                                         2.494033       2.353227
                                                         0.988355       0.554184
                                                         0.344978       0.019462
                                                         0.099466      -0.000291
                          1       4    3pz              10.077428      -3.133913
                                                         5.847736       3.027656
                                                         2.494033       2.353227
                                                         0.988355       0.554184
                                                         0.344978       0.019462
                                                         0.099466      -0.000291

                          1       5    4px              10.077428      -0.112729
                                                         5.847736      -0.114008
                                                         2.494033      -0.347303
                                                         0.988355      -0.110323
                                                         0.344978       0.154096
                                                         0.099466       0.058386
                          1       5    4py              10.077428      -0.112729
                                                         5.847736      -0.114008
                                                         2.494033      -0.347303
                                                         0.988355      -0.110323
                                                         0.344978       0.154096
                                                         0.099466       0.058386
                          1       5    4pz              10.077428      -0.112729
                                                         5.847736      -0.114008
                                                         2.494033      -0.347303
                                                         0.988355      -0.110323
                                                         0.344978       0.154096
                                                         0.099466       0.058386

                          1       6    4dx2             10.077428       8.232726
                                                         5.847736       9.105758
                                                         2.494033       2.849835
                                                         0.988355       0.554319
                                                         0.344978       0.067245
                                                         0.099466       0.001940
                          1       6    4dxy             10.077428      14.259500
                                                         5.847736      15.771636
                                                         2.494033       4.936060
                                                         0.988355       0.960109
                                                         0.344978       0.116472
                                                         0.099466       0.003360
                          1       6    4dxz             10.077428      14.259500
                                                         5.847736      15.771636
                                                         2.494033       4.936060
                                                         0.988355       0.960109
                                                         0.344978       0.116472
                                                         0.099466       0.003360
                          1       6    4dy2             10.077428       8.232726
                                                         5.847736       9.105758
                                                         2.494033       2.849835
                                                         0.988355       0.554319
                                                         0.344978       0.067245
                                                         0.099466       0.001940
                          1       6    4dyz             10.077428      14.259500
                                                         5.847736      15.771636
                                                         2.494033       4.936060
                                                         0.988355       0.960109
                                                         0.344978       0.116472
                                                         0.099466       0.003360
                          1       6    4dz2             10.077428       8.232726
                                                         5.847736       9.105758
                                                         2.494033       2.849835
                                                         0.988355       0.554319
                                                         0.344978       0.067245
                                                         0.099466       0.001940

                          1       7    5dx2             10.077428      -2.715373
                                                         5.847736      -4.020640
                                                         2.494033      -1.397569
                                                         0.988355      -0.076143
                                                         0.344978       0.033435
                                                         0.099466       0.026032
                          1       7    5dxy             10.077428      -4.703164
                                                         5.847736      -6.963952
                                                         2.494033      -2.420661
                                                         0.988355      -0.131883
                                                         0.344978       0.057911
                                                         0.099466       0.045088
                          1       7    5dxz             10.077428      -4.703164
                                                         5.847736      -6.963952
                                                         2.494033      -2.420661
                                                         0.988355      -0.131883
                                                         0.344978       0.057911
                                                         0.099466       0.045088
                          1       7    5dy2             10.077428      -2.715373
                                                         5.847736      -4.020640
                                                         2.494033      -1.397569
                                                         0.988355      -0.076143
                                                         0.344978       0.033435
                                                         0.099466       0.026032
                          1       7    5dyz             10.077428      -4.703164
                                                         5.847736      -6.963952
                                                         2.494033      -2.420661
                                                         0.988355      -0.131883
                                                         0.344978       0.057911
                                                         0.099466       0.045088
                          1       7    5dz2             10.077428      -2.715373
                                                         5.847736      -4.020640
                                                         2.494033      -1.397569
                                                         0.988355      -0.076143
                                                         0.344978       0.033435
                                                         0.099466       0.026032

                          1       8    5fx3             10.077428      -0.467694
                                                         5.847736       0.618100
                                                         2.494033       0.066069
                                                         0.988355       0.262898
                                                         0.344978       0.004720
                                                         0.099466       0.007748
                          1       8    5fx2y            10.077428      -1.045795
                                                         5.847736       1.382114
                                                         2.494033       0.147734
                                                         0.988355       0.587859
                                                         0.344978       0.010555
                                                         0.099466       0.017325
                          1       8    5fx2z            10.077428      -1.045795
                                                         5.847736       1.382114
                                                         2.494033       0.147734
                                                         0.988355       0.587859
                                                         0.344978       0.010555
                                                         0.099466       0.017325
                          1       8    5fxy2            10.077428      -1.045795
                                                         5.847736       1.382114
                                                         2.494033       0.147734
                                                         0.988355       0.587859
                                                         0.344978       0.010555
                                                         0.099466       0.017325
                          1       8    5fxyz            10.077428      -1.811371
                                                         5.847736       2.393892
                                                         2.494033       0.255883
                                                         0.988355       1.018201
                                                         0.344978       0.018282
                                                         0.099466       0.030008
                          1       8    5fxz2            10.077428      -1.045795
                                                         5.847736       1.382114
                                                         2.494033       0.147734
                                                         0.988355       0.587859
                                                         0.344978       0.010555
                                                         0.099466       0.017325
                          1       8    5fy3             10.077428      -0.467694
                                                         5.847736       0.618100
                                                         2.494033       0.066069
                                                         0.988355       0.262898
                                                         0.344978       0.004720
                                                         0.099466       0.007748
                          1       8    5fy2z            10.077428      -1.045795
                                                         5.847736       1.382114
                                                         2.494033       0.147734
                                                         0.988355       0.587859
                                                         0.344978       0.010555
                                                         0.099466       0.017325
                          1       8    5fyz2            10.077428      -1.045795
                                                         5.847736       1.382114
                                                         2.494033       0.147734
                                                         0.988355       0.587859
                                                         0.344978       0.010555
                                                         0.099466       0.017325
                          1       8    5fz3             10.077428      -0.467694
                                                         5.847736       0.618100
                                                         2.494033       0.066069
                                                         0.988355       0.262898
                                                         0.344978       0.004720
                                                         0.099466       0.007748

       Atomic covalent radius [Angstrom]:                                  1.150

       Atomic van der Waals radius [Angstrom]:                             1.630

     GTH Potential information for                                   GTH-PBE-q18

       Description:                       Goedecker-Teter-Hutter pseudopotential
                                           Goedecker et al., PRB 54, 1703 (1996)
                                          Hartwigsen et al., PRB 58, 3641 (1998)
                                                      Krack, TCA 114, 145 (2005)

       Gaussian exponent of the core charge distribution:               4.081633
       Electronic configuration (s p d ...):                           4   6   8

       Parameters of the local part of the GTH pseudopotential:

                          rloc        C1          C2          C3          C4
                        0.350000    2.102166    0.648484

       Parameters of the non-local part of the GTH pseudopotential:

                   l      r(l)      h(i,j,l)

                   0    0.261295    0.622658    9.970227
                                    9.970227  -12.871507
                   1    0.224253  -11.142708   12.429566
                                   12.429566  -14.706861
                   2    0.215348  -12.628146

  2. Atomic kind: Ni_b                                  Number of atoms:      16

     Orbital Basis Set                                        DZVP-MOLOPT-SR-GTH

       Number of orbital shell sets:                                           1
       Number of orbital shells:                                               8
       Number of primitive Cartesian functions:                                6
       Number of Cartesian basis functions:                                   31
       Number of spherical basis functions:                                   26
       Norm type:                                                              2

       Normalised Cartesian orbitals:

                        Set   Shell   Orbital            Exponent    Coefficient

                          1       1    2s               10.077428      -0.684558
                                                         5.847736      -0.844524
                                                         2.494033       1.088856
                                                         0.988355       0.395503
                                                         0.344978       0.010224
                                                         0.099466      -0.003250

                          1       2    3s               10.077428       0.096747
                                                         5.847736       0.162504
                                                         2.494033      -0.297192
                                                         0.988355      -0.319752
                                                         0.344978       0.088318
                                                         0.099466       0.118587

                          1       3    4s               10.077428       0.036437
                                                         5.847736      -0.381480
                                                         2.494033       0.003759
                                                         0.988355      -1.048256
                                                         0.344978       0.855825
                                                         0.099466      -0.176350

                          1       4    3px              10.077428      -3.133913
                                                         5.847736       3.027656
                                                         2.494033       2.353227
                                                         0.988355       0.554184
                                                         0.344978       0.019462
                                                         0.099466      -0.000291
                          1       4    3py              10.077428      -3.133913
                                                         5.847736       3.027656
                                                         2.494033       2.353227
                                                         0.988355       0.554184
                                                         0.344978       0.019462
                                                         0.099466      -0.000291
                          1       4    3pz              10.077428      -3.133913
                                                         5.847736       3.027656
                                                         2.494033       2.353227
                                                         0.988355       0.554184
                                                         0.344978       0.019462
                                                         0.099466      -0.000291

                          1       5    4px              10.077428      -0.112729
                                                         5.847736      -0.114008
                                                         2.494033      -0.347303
                                                         0.988355      -0.110323
                                                         0.344978       0.154096
                                                         0.099466       0.058386
                          1       5    4py              10.077428      -0.112729
                                                         5.847736      -0.114008
                                                         2.494033      -0.347303
                                                         0.988355      -0.110323
                                                         0.344978       0.154096
                                                         0.099466       0.058386
                          1       5    4pz              10.077428      -0.112729
                                                         5.847736      -0.114008
                                                         2.494033      -0.347303
                                                         0.988355      -0.110323
                                                         0.344978       0.154096
                                                         0.099466       0.058386

                          1       6    4dx2             10.077428       8.232726
                                                         5.847736       9.105758
                                                         2.494033       2.849835
                                                         0.988355       0.554319
                                                         0.344978       0.067245
                                                         0.099466       0.001940
                          1       6    4dxy             10.077428      14.259500
                                                         5.847736      15.771636
                                                         2.494033       4.936060
                                                         0.988355       0.960109
                                                         0.344978       0.116472
                                                         0.099466       0.003360
                          1       6    4dxz             10.077428      14.259500
                                                         5.847736      15.771636
                                                         2.494033       4.936060
                                                         0.988355       0.960109
                                                         0.344978       0.116472
                                                         0.099466       0.003360
                          1       6    4dy2             10.077428       8.232726
                                                         5.847736       9.105758
                                                         2.494033       2.849835
                                                         0.988355       0.554319
                                                         0.344978       0.067245
                                                         0.099466       0.001940
                          1       6    4dyz             10.077428      14.259500
                                                         5.847736      15.771636
                                                         2.494033       4.936060
                                                         0.988355       0.960109
                                                         0.344978       0.116472
                                                         0.099466       0.003360
                          1       6    4dz2             10.077428       8.232726
                                                         5.847736       9.105758
                                                         2.494033       2.849835
                                                         0.988355       0.554319
                                                         0.344978       0.067245
                                                         0.099466       0.001940

                          1       7    5dx2             10.077428      -2.715373
                                                         5.847736      -4.020640
                                                         2.494033      -1.397569
                                                         0.988355      -0.076143
                                                         0.344978       0.033435
                                                         0.099466       0.026032
                          1       7    5dxy             10.077428      -4.703164
                                                         5.847736      -6.963952
                                                         2.494033      -2.420661
                                                         0.988355      -0.131883
                                                         0.344978       0.057911
                                                         0.099466       0.045088
                          1       7    5dxz             10.077428      -4.703164
                                                         5.847736      -6.963952
                                                         2.494033      -2.420661
                                                         0.988355      -0.131883
                                                         0.344978       0.057911
                                                         0.099466       0.045088
                          1       7    5dy2             10.077428      -2.715373
                                                         5.847736      -4.020640
                                                         2.494033      -1.397569
                                                         0.988355      -0.076143
                                                         0.344978       0.033435
                                                         0.099466       0.026032
                          1       7    5dyz             10.077428      -4.703164
                                                         5.847736      -6.963952
                                                         2.494033      -2.420661
                                                         0.988355      -0.131883
                                                         0.344978       0.057911
                                                         0.099466       0.045088
                          1       7    5dz2             10.077428      -2.715373
                                                         5.847736      -4.020640
                                                         2.494033      -1.397569
                                                         0.988355      -0.076143
                                                         0.344978       0.033435
                                                         0.099466       0.026032

                          1       8    5fx3             10.077428      -0.467694
                                                         5.847736       0.618100
                                                         2.494033       0.066069
                                                         0.988355       0.262898
                                                         0.344978       0.004720
                                                         0.099466       0.007748
                          1       8    5fx2y            10.077428      -1.045795
                                                         5.847736       1.382114
                                                         2.494033       0.147734
                                                         0.988355       0.587859
                                                         0.344978       0.010555
                                                         0.099466       0.017325
                          1       8    5fx2z            10.077428      -1.045795
                                                         5.847736       1.382114
                                                         2.494033       0.147734
                                                         0.988355       0.587859
                                                         0.344978       0.010555
                                                         0.099466       0.017325
                          1       8    5fxy2            10.077428      -1.045795
                                                         5.847736       1.382114
                                                         2.494033       0.147734
                                                         0.988355       0.587859
                                                         0.344978       0.010555
                                                         0.099466       0.017325
                          1       8    5fxyz            10.077428      -1.811371
                                                         5.847736       2.393892
                                                         2.494033       0.255883
                                                         0.988355       1.018201
                                                         0.344978       0.018282
                                                         0.099466       0.030008
                          1       8    5fxz2            10.077428      -1.045795
                                                         5.847736       1.382114
                                                         2.494033       0.147734
                                                         0.988355       0.587859
                                                         0.344978       0.010555
                                                         0.099466       0.017325
                          1       8    5fy3             10.077428      -0.467694
                                                         5.847736       0.618100
                                                         2.494033       0.066069
                                                         0.988355       0.262898
                                                         0.344978       0.004720
                                                         0.099466       0.007748
                          1       8    5fy2z            10.077428      -1.045795
                                                         5.847736       1.382114
                                                         2.494033       0.147734
                                                         0.988355       0.587859
                                                         0.344978       0.010555
                                                         0.099466       0.017325
                          1       8    5fyz2            10.077428      -1.045795
                                                         5.847736       1.382114
                                                         2.494033       0.147734
                                                         0.988355       0.587859
                                                         0.344978       0.010555
                                                         0.099466       0.017325
                          1       8    5fz3             10.077428      -0.467694
                                                         5.847736       0.618100
                                                         2.494033       0.066069
                                                         0.988355       0.262898
                                                         0.344978       0.004720
                                                         0.099466       0.007748

       Atomic covalent radius [Angstrom]:                                  1.150

       Atomic van der Waals radius [Angstrom]:                             1.630

     GTH Potential information for                                   GTH-PBE-q18

       Description:                       Goedecker-Teter-Hutter pseudopotential
                                           Goedecker et al., PRB 54, 1703 (1996)
                                          Hartwigsen et al., PRB 58, 3641 (1998)
                                                      Krack, TCA 114, 145 (2005)

       Gaussian exponent of the core charge distribution:               4.081633
       Electronic configuration (s p d ...):                           4   6   8

       Parameters of the local part of the GTH pseudopotential:

                          rloc        C1          C2          C3          C4
                        0.350000    2.102166    0.648484

       Parameters of the non-local part of the GTH pseudopotential:

                   l      r(l)      h(i,j,l)

                   0    0.261295    0.622658    9.970227
                                    9.970227  -12.871507
                   1    0.224253  -11.142708   12.429566
                                   12.429566  -14.706861
                   2    0.215348  -12.628146


 MOLECULE KIND INFORMATION


 All atoms are their own molecule, skipping detailed information


 TOTAL NUMBERS AND MAXIMUM NUMBERS

  Total number of            - Atomic kinds:                                   2
                             - Atoms:                                         32
                             - Shell sets:                                    32
                             - Shells:                                       256
                             - Primitive Cartesian functions:                192
                             - Cartesian basis functions:                    992
                             - Spherical basis functions:                    832

  Maximum angular momentum of- Orbital basis functions:                        3
                             - Local part of the GTH pseudopotential:          2
                             - Non-local part of the GTH pseudopotential:      3


 MODULE QUICKSTEP: ATOMIC COORDINATES IN ANGSTROM

   Atom Kind Element         X             Y             Z       Z(eff)     Mass
      1    1 Ni   28      0.876298      0.876298      7.370500  18.0000  58.6934
      2    1 Ni   28      0.876298      4.382298      7.370500  18.0000  58.6934
      3    1 Ni   28      2.629298      2.629298      7.370500  18.0000  58.6934
      4    1 Ni   28      2.629298      6.135298      7.370500  18.0000  58.6934
      5    1 Ni   28      4.382298      0.876298      7.370500  18.0000  58.6934
      6    1 Ni   28      4.382298      4.382298      7.370500  18.0000  58.6934
      7    1 Ni   28      6.135298      2.629298      7.370500  18.0000  58.6934
      8    1 Ni   28      6.135298      6.135298      7.370500  18.0000  58.6934
      9    2 Ni   28      0.876298      2.629298      9.123500  18.0000  58.6934
     10    2 Ni   28      0.876298      6.135298      9.123500  18.0000  58.6934
     11    2 Ni   28      2.629298      0.876298      9.123500  18.0000  58.6934
     12    2 Ni   28      2.629298      4.382298      9.123500  18.0000  58.6934
     13    2 Ni   28      4.382298      2.629298      9.123500  18.0000  58.6934
     14    2 Ni   28      4.382298      6.135298      9.123500  18.0000  58.6934
     15    2 Ni   28      6.135298      0.876298      9.123500  18.0000  58.6934
     16    2 Ni   28      6.135298      4.382298      9.123500  18.0000  58.6934
     17    2 Ni   28      0.876298      0.876298     10.876500  18.0000  58.6934
     18    2 Ni   28      0.876298      4.382298     10.876500  18.0000  58.6934
     19    2 Ni   28      2.629298      2.629298     10.876500  18.0000  58.6934
     20    2 Ni   28      2.629298      6.135298     10.876500  18.0000  58.6934
     21    2 Ni   28      4.382298      0.876298     10.876500  18.0000  58.6934
     22    2 Ni   28      4.382298      4.382298     10.876500  18.0000  58.6934
     23    2 Ni   28      6.135298      2.629298     10.876500  18.0000  58.6934
     24    2 Ni   28      6.135298      6.135298     10.876500  18.0000  58.6934
     25    1 Ni   28      0.876298      2.629298     12.629500  18.0000  58.6934
     26    1 Ni   28      0.876298      6.135298     12.629500  18.0000  58.6934
     27    1 Ni   28      2.629298      0.876298     12.629500  18.0000  58.6934
     28    1 Ni   28      2.629298      4.382298     12.629500  18.0000  58.6934
     29    1 Ni   28      4.382298      2.629298     12.629500  18.0000  58.6934
     30    1 Ni   28      4.382298      6.135298     12.629500  18.0000  58.6934
     31    1 Ni   28      6.135298      0.876298     12.629500  18.0000  58.6934
     32    1 Ni   28      6.135298      4.382298     12.629500  18.0000  58.6934



 SCF PARAMETERS         Density guess:                                    ATOMIC
                        --------------------------------------------------------
                        max_scf:                                             500
                        max_scf_history:                                       0
                        max_diis:                                              4
                        --------------------------------------------------------
                        eps_scf:                                        1.00E-04
                        eps_scf_history:                                0.00E+00
                        eps_diis:                                       1.00E-01
                        eps_eigval:                                     1.00E-05
                        --------------------------------------------------------
                        level_shift [a.u.]:                             0.000000
                        added MOs                                       534  553
                        --------------------------------------------------------
                        Mixing method:                            BROYDEN_MIXING
                                                charge density mixing in g-space
                        --------------------------------------------------------
                        Smear method:                                FERMI_DIRAC
                        Electronic temperature [K]:                       2000.0
                        Electronic temperature [a.u.]:                  6.33E-03
                        Accuracy threshold:                             1.00E-10
                        --------------------------------------------------------
                        No outer SCF

 PW_GRID| Information for grid number                                          1
 PW_GRID| Grid distributed over                                   128 processors
 PW_GRID| Real space group dimensions                                     8   16
 PW_GRID| the grid is blocked:                                               YES
 PW_GRID| Cutoff [a.u.]                                                    300.0
 PW_GRID| spherical cutoff:                                                   NO
 PW_GRID|   Bounds   1            -54      53                Points:         108
 PW_GRID|   Bounds   2            -54      53                Points:         108
 PW_GRID|   Bounds   3           -150     149                Points:         300
 PW_GRID| Volume element (a.u.^3)  0.1896E-02     Volume (a.u.^3)      6635.2971
 PW_GRID| Grid span                                                    FULLSPACE
 PW_GRID|   Distribution                         Average         Max         Min
 PW_GRID|   G-Vectors                            27337.5       28728       25272
 PW_GRID|   G-Rays                                 253.1         266         234
 PW_GRID|   Real Space Points                    27337.5       28728       25272

 PW_GRID| Information for grid number                                          2
 PW_GRID| Number of the reference grid                                         1
 PW_GRID| Grid distributed over                                   128 processors
 PW_GRID| Real space group dimensions                                     8   16
 PW_GRID| the grid is blocked:                                                NO
 PW_GRID| Cutoff [a.u.]                                                    100.0
 PW_GRID| spherical cutoff:                                                   NO
 PW_GRID|   Bounds   1            -30      29                Points:          60
 PW_GRID|   Bounds   2            -30      29                Points:          60
 PW_GRID|   Bounds   3            -90      89                Points:         180
 PW_GRID| Volume element (a.u.^3)  0.1024E-01     Volume (a.u.^3)      6635.2971
 PW_GRID| Grid span                                                    FULLSPACE
 PW_GRID|   Distribution                         Average         Max         Min
 PW_GRID|   G-Vectors                             5062.5       15960           0
 PW_GRID|   G-Rays                                  84.4         266           0
 PW_GRID|   Real Space Points                     5062.5        5760        3780

 PW_GRID| Information for grid number                                          3
 PW_GRID| Number of the reference grid                                         1
 PW_GRID| Grid distributed over                                   128 processors
 PW_GRID| Real space group dimensions                                     8   16
 PW_GRID| the grid is blocked:                                                NO
 PW_GRID| Cutoff [a.u.]                                                     33.3
 PW_GRID| spherical cutoff:                                                   NO
 PW_GRID|   Bounds   1            -18      17                Points:          36
 PW_GRID|   Bounds   2            -18      17                Points:          36
 PW_GRID|   Bounds   3            -50      49                Points:         100
 PW_GRID| Volume element (a.u.^3)  0.5120E-01     Volume (a.u.^3)      6635.2971
 PW_GRID| Grid span                                                    FULLSPACE
 PW_GRID|   Distribution                         Average         Max         Min
 PW_GRID|   G-Vectors                             1012.5        9576           0
 PW_GRID|   G-Rays                                  28.1         266           0
 PW_GRID|   Real Space Points                     1012.5        1500         800

 PW_GRID| Information for grid number                                          4
 PW_GRID| Number of the reference grid                                         1
 PW_GRID| Grid distributed over                                   128 processors
 PW_GRID| Real space group dimensions                                     8   16
 PW_GRID| the grid is blocked:                                                NO
 PW_GRID| Cutoff [a.u.]                                                     11.1
 PW_GRID| spherical cutoff:                                                   NO
 PW_GRID|   Bounds   1            -10       9                Points:          20
 PW_GRID|   Bounds   2            -10       9                Points:          20
 PW_GRID|   Bounds   3            -30      29                Points:          60
 PW_GRID| Volume element (a.u.^3)  0.2765         Volume (a.u.^3)      6635.2971
 PW_GRID| Grid span                                                    FULLSPACE
 PW_GRID|   Distribution                         Average         Max         Min
 PW_GRID|   G-Vectors                              187.5        3800           0
 PW_GRID|   G-Rays                                   9.4         190           0
 PW_GRID|   Real Space Points                      187.5         360         120

 PW_GRID| Information for grid number                                          5
 PW_GRID| Number of the reference grid                                         1
 PW_GRID| Grid distributed over                                   128 processors
 PW_GRID| Real space group dimensions                                     8   16
 PW_GRID| the grid is blocked:                                                NO
 PW_GRID| Cutoff [a.u.]                                                      3.7
 PW_GRID| spherical cutoff:                                                   NO
 PW_GRID|   Bounds   1             -6       5                Points:          12
 PW_GRID|   Bounds   2             -6       5                Points:          12
 PW_GRID|   Bounds   3            -18      17                Points:          36
 PW_GRID| Volume element (a.u.^3)   1.280         Volume (a.u.^3)      6635.2971
 PW_GRID| Grid span                                                    FULLSPACE
 PW_GRID|   Distribution                         Average         Max         Min
 PW_GRID|   G-Vectors                               40.5        1296           0
 PW_GRID|   G-Rays                                   3.4         108           0
 PW_GRID|   Real Space Points                       40.5          72           0

 POISSON| Solver                                                        PERIODIC
 POISSON| Periodicity                                                        XYZ

 RS_GRID| Information for grid number                                          1
 RS_GRID|   Bounds   1            -54      53                Points:         108
 RS_GRID|   Bounds   2            -54      53                Points:         108
 RS_GRID|   Bounds   3           -150     149                Points:         300
 RS_GRID| Real space distribution over                                  8 groups
 RS_GRID| Real space distribution along direction                              2
 RS_GRID| Border size                                                         28
 RS_GRID| Real space distribution over                                 16 groups
 RS_GRID| Real space distribution along direction                              3
 RS_GRID| Border size                                                         28
 RS_GRID|   Distribution                         Average         Max         Min
 RS_GRID|   Planes                                  69.5          70          69
 RS_GRID|   Distribution                         Average         Max         Min
 RS_GRID|   Planes                                  74.8          75          74

 RS_GRID| Information for grid number                                          2
 RS_GRID|   Bounds   1            -30      29                Points:          60
 RS_GRID|   Bounds   2            -30      29                Points:          60
 RS_GRID|   Bounds   3            -90      89                Points:         180
 RS_GRID| Real space fully replicated
 RS_GRID| Group size                                                           1

 RS_GRID| Information for grid number                                          3
 RS_GRID|   Bounds   1            -18      17                Points:          36
 RS_GRID|   Bounds   2            -18      17                Points:          36
 RS_GRID|   Bounds   3            -50      49                Points:         100
 RS_GRID| Real space fully replicated
 RS_GRID| Group size                                                           1

 RS_GRID| Information for grid number                                          4
 RS_GRID|   Bounds   1            -10       9                Points:          20
 RS_GRID|   Bounds   2            -10       9                Points:          20
 RS_GRID|   Bounds   3            -30      29                Points:          60
 RS_GRID| Real space fully replicated
 RS_GRID| Group size                                                           1

 RS_GRID| Information for grid number                                          5
 RS_GRID|   Bounds   1             -6       5                Points:          12
 RS_GRID|   Bounds   2             -6       5                Points:          12
 RS_GRID|   Bounds   3            -18      17                Points:          36
 RS_GRID| Real space fully replicated
 RS_GRID| Group size                                                           1

 Spin 1

 Number of electrons:                                                        297.760
 Number of occupied orbitals:                                                298
 Number of molecular orbitals:                                               832

 Spin 2

 Number of electrons:                                                        278.240
 Number of occupied orbitals:                                                279
 Number of molecular orbitals:                                               832

 Number of orbital functions:                                                832
 Number of independent orbital functions:                                    832

 Extrapolation method: initial_guess

 Atomic guess: The first density matrix is obtained in terms of atomic orbitals
               and electronic configurations assigned to each atomic kind

 Guess for atomic kind: Ni_i

 Electronic structure
    Total number of core electrons                                         10.00
    Total number of valence electrons                                      18.00
    Total number of electrons                                              28.00
    Multiplicity                                                         doublet
    Alpha Electrons
    S   [  1.00  1.00] 1.00  1.00
    P   [  3.00] 3.00
    D      4.40
    Beta Electrons
    S   [  1.00  1.00] 1.00  1.00
    P   [  3.00] 3.00
    D      3.60


 *******************************************************************************
                  Iteration          Convergence                     Energy [au]
 *******************************************************************************
                          1         1.51750                    -167.068932204718
                          2         15.5935                    -156.656530566819
                          3         2.37322                    -168.320625176021
                          4        0.215236                    -168.611142488999
                          5        0.864690E-01                -168.614185977773
                          6        0.204270E-01                -168.614864366588
                          7        0.117629E-02                -168.614962284536
                          8        0.143499E-02                -168.614962241165
                          9        0.165550E-03                -168.614962454733
                         10        0.801651E-03                -168.614962414936
                         11        0.526340E-03                -168.614962440154
                         12        0.114214E-03                -168.614962458210
                         13        0.974554E-04                -168.614962459061
                         14        0.103837E-03                -168.614962459937
                         15        0.922182E-04                -168.614962460311
                         16        0.489415E-04                -168.614962460739
                         17        0.376531E-04                -168.614962461148
                         18        0.319337E-04                -168.614962461185
                         19        0.537275E-04                -168.614962461068
                         20        0.409549E-04                -168.614962461145
                         21        0.226152E-04                -168.614962461237
                         22        0.174462E-04                -168.614962461257
                         23        0.165586E-04                -168.614962461260
                         24        0.160650E-04                -168.614962461262
                         25        0.113583E-04                -168.614962461280
                         26        0.503754E-05                -168.614962461287
                         27        0.239088E-05                -168.614962461289
                         28        0.206656E-05                -168.614962461289
                         29        0.678810E-06                -168.614962461289

 Energy components [Hartree]           Total Energy ::         -168.614962461289
                                        Band Energy ::          -26.570438398031
                                     Kinetic Energy ::           97.308645535822
                                   Potential Energy ::         -265.923607997111
                                      Virial (-V/T) ::            2.732785011371
                                        Core Energy ::         -299.569105195415
                                          XC Energy ::          -16.228812263913
                                     Coulomb Energy ::          147.182954998038
                       Total Pseudopotential Energy ::         -396.964091881334
                       Local Pseudopotential Energy ::         -362.650332264705
                    Nonlocal Pseudopotential Energy ::          -34.313759616629
                                        Confinement ::            0.863411500974

 Orbital energies  State     Spin  L     Occupation   Energy[a.u.]    Energy[eV]

                       1    alpha  0          1.000      -4.174802   -113.602130
                       2    alpha  0          1.000      -0.181779     -4.946449
                       1     beta  0          1.000      -4.138200   -112.606137
                       2     beta  0          1.000      -0.175997     -4.789129

                       1    alpha  1          3.000      -2.580817    -70.227599
                       1     beta  1          3.000      -2.545205    -69.258560

                       1    alpha  2          4.400      -0.328813     -8.947444
                       1     beta  2          3.600      -0.298561     -8.124256


 Total Electron Density at R=0:                                         0.030417

 Guess for atomic kind: Ni_b

 Electronic structure
    Total number of core electrons                                         10.00
    Total number of valence electrons                                      18.00
    Total number of electrons                                              28.00
    Multiplicity                                                         singlet
    Alpha Electrons
    S   [  1.00  1.00] 1.00  1.00
    P   [  3.00] 3.00
    D      4.21
    Beta Electrons
    S   [  1.00  1.00] 1.00  1.00
    P   [  3.00] 3.00
    D      3.79


 *******************************************************************************
                  Iteration          Convergence                     Energy [au]
 *******************************************************************************
                          1         1.51669                    -167.064273181618
                          2         14.8176                    -156.613611054160
                          3         2.22403                    -168.316681634815
                          4        0.182027                    -168.607319475213
                          5        0.664876E-01                -168.610129603097
                          6        0.107057E-01                -168.610553418471
                          7        0.704739E-02                -168.610575285282
                          8        0.583044E-02                -168.610576111366
                          9        0.114340E-02                -168.610579450866
                         10        0.267788E-02                -168.610579045091
                         11        0.918378E-03                -168.610579514000
                         12        0.161217E-03                -168.610579618273
                         13        0.111195E-03                -168.610579617964
                         14        0.943797E-04                -168.610579619464
                         15        0.149057E-03                -168.610579616374
                         16        0.236413E-04                -168.610579620183
                         17        0.287836E-04                -168.610579620103
                         18        0.372318E-04                -168.610579620167
                         19        0.242156E-04                -168.610579620220
                         20        0.406601E-04                -168.610579620136
                         21        0.954165E-05                -168.610579620257
                         22        0.781907E-05                -168.610579620260
                         23        0.619053E-05                -168.610579620263
                         24        0.713374E-05                -168.610579620262
                         25        0.937306E-05                -168.610579620259
                         26        0.141389E-05                -168.610579620268
                         27        0.361882E-06                -168.610579620268

 Energy components [Hartree]           Total Energy ::         -168.610579620268
                                        Band Energy ::          -26.568345758080
                                     Kinetic Energy ::           97.302719186897
                                   Potential Energy ::         -265.913298807165
                                      Virial (-V/T) ::            2.732845505544
                                        Core Energy ::         -299.565639982305
                                          XC Energy ::          -16.223796623679
                                     Coulomb Energy ::          147.178856985716
                       Total Pseudopotential Energy ::         -396.954699680078
                       Local Pseudopotential Energy ::         -362.644046490013
                    Nonlocal Pseudopotential Energy ::          -34.310653190065
                                        Confinement ::            0.863405108764

 Orbital energies  State     Spin  L     Occupation   Energy[a.u.]    Energy[eV]

                       1    alpha  0          1.000      -4.166580   -113.378410
                       2    alpha  0          1.000      -0.180447     -4.910222
                       1     beta  0          1.000      -4.147364   -112.855515
                       2     beta  0          1.000      -0.177413     -4.827653

                       1    alpha  1          3.000      -2.572817    -70.009913
                       1     beta  1          3.000      -2.554121    -69.501173

                       1    alpha  2          4.210      -0.321991     -8.761807
                       1     beta  2          3.790      -0.306107     -8.329602


 Total Electron Density at R=0:                                         0.030431

 Spin 1
 Re-scaling the density matrix to get the right number of electrons for spin 1
                  # Electrons              Trace(P)               Scaling factor
                        297.760             297.760                        1.000

 Spin 2
 Re-scaling the density matrix to get the right number of electrons for spin 2
                  # Electrons              Trace(P)               Scaling factor
                        278.240             278.240                        1.000


 SCF WAVEFUNCTION OPTIMIZATION

  Step     Update method      Time    Convergence         Total energy    Change
  ------------------------------------------------------------------------------
     1 NoMix/Diag. 0.80E-01    1.7     0.87261500     -5426.4557650908 -5.43E+03
     2 Broy./Diag. 0.80E-01    1.5     0.01819161     -5316.3460458952  1.10E+02
     3 Broy./Diag. 0.80E-01    1.5     0.04597024     -5350.8109194065 -3.45E+01
     4 Broy./Diag. 0.80E-01    1.5     0.00863195     -5409.1697800150 -5.84E+01
     5 Broy./Diag. 0.80E-01    1.5     0.01108313     -5416.1951990086 -7.03E+00
     6 Broy./Diag. 0.80E-01    1.5     0.01319992     -5415.8478737623  3.47E-01
     7 Broy./Diag. 0.80E-01    1.5     0.00255478     -5416.9737239215 -1.13E+00
     8 Broy./Diag. 0.80E-01    1.5     0.00955020     -5417.0743688214 -1.01E-01
     9 Broy./Diag. 0.80E-01    1.5     0.00237434     -5416.8501896092  2.24E-01
    10 Broy./Diag. 0.80E-01    1.5     0.00163007     -5417.4524522630 -6.02E-01
    11 Broy./Diag. 0.80E-01    1.5     0.00216814     -5416.8606947212  5.92E-01
[...]
   131 Broy./Diag. 0.80E-01    1.5     0.00564505     -5416.0505065210 -4.95E-01
   132 Broy./Diag. 0.80E-01    1.5     0.00646451     -5417.7135145034 -1.66E+00
   133 Broy./Diag. 0.80E-01    1.5     0.01182590     -5417.4503373049  2.63E-01
   134 Broy./Diag. 0.80E-01    1.5     0.00468405     -5417.6761186014 -2.26E-01
   135 Broy./Diag. 0.80E-01    1.5     0.00502235     -5417.8403985692 -1.64E-01
   136 Broy./Diag. 0.80E-01    1.5     0.00843657     -5417.9715631594 -1.31E-01
   137 Broy./Diag. 0.80E-01    1.5     0.00620674     -5417.9797568448 -8.19E-03
   138 Broy./Diag. 0.80E-01    1.5     0.01889322     -5418.1182691913 -1.39E-01
   139 Broy./Diag. 0.80E-01    1.5     0.00456810     -5418.1522488082 -3.40E-02
   140 Broy./Diag. 0.80E-01    1.5     0.01025926     -5418.1332713692  1.90E-02
   141 Broy./Diag. 0.80E-01    1.5     0.00516643     -5418.0322610384  1.01E-01
   142 Broy./Diag. 0.80E-01    1.5     0.00191964     -5418.0888920217 -5.66E-02
   143 Broy./Diag. 0.80E-01    1.5     0.01657439     -5418.1658862917 -7.70E-02
   144 Broy./Diag. 0.80E-01    1.5     0.02069110     -5418.2323588592 -6.65E-02
   145 Broy./Diag. 0.80E-01    1.5     0.07508360     -5418.2369135162 -4.55E-03
   146 Broy./Diag. 0.80E-01    1.5     0.09587226     -5417.6585170408  5.78E-01
   147 Broy./Diag. 0.80E-01    1.5     0.03681858     -5417.5581218360  1.00E-01
   148 Broy./Diag. 0.80E-01    1.5     0.02457170     -5417.7828160859 -2.25E-01
   149 Broy./Diag. 0.80E-01    1.5     0.13450107     -5417.8975892703 -1.15E-01
   150 Broy./Diag. 0.80E-01    1.5     0.07901695     -5416.3598960706  1.54E+00
   151 Broy./Diag. 0.80E-01    1.5     0.04463462     -5417.4519888634 -1.09E+00
   152 Broy./Diag. 0.80E-01    1.5     0.05634140     -5416.4409914937  1.01E+00
   153 Broy./Diag. 0.80E-01    1.5     0.11669507     -5417.2164626491 -7.75E-01
   154 Broy./Diag. 0.80E-01    1.5     0.02362570     -5415.3580487433  1.86E+00
   155 Broy./Diag. 0.80E-01    1.5     0.03865014     -5415.8169822658 -4.59E-01
   156 Broy./Diag. 0.80E-01    1.5     0.07754562     -5416.4872301184 -6.70E-01
   157 Broy./Diag. 0.80E-01    1.5     0.00572370     -5417.5452706872 -1.06E+00
   158 Broy./Diag. 0.80E-01    1.5     0.01990678     -5417.5261636591  1.91E-02
   159 Broy./Diag. 0.80E-01    1.5     0.02508628     -5417.0887507119  4.37E-01
   160 Broy./Diag. 0.80E-01    1.5     0.02764646     -5416.3396880536  7.49E-01
   161 Broy./Diag. 0.80E-01    1.5     0.01889237     -5417.3415331229 -1.00E+00
   162 Broy./Diag. 0.80E-01    1.5     0.00992196     -5417.1427892751  1.99E-01
   163 Broy./Diag. 0.80E-01    1.5     0.11651851     -5417.2235115697 -8.07E-02
   164 Broy./Diag. 0.80E-01    1.5     0.04003071     -5416.8671974969  3.56E-01
   165 Broy./Diag. 0.80E-01    1.5     0.04123280     -5416.0793312415  7.88E-01
   166 Broy./Diag. 0.80E-01    1.5     0.02181485     -5417.2407321044 -1.16E+00
   167 Broy./Diag. 0.80E-01    1.5     0.04311892     -5416.6364821116  6.04E-01
   168 Broy./Diag. 0.80E-01    1.5     0.16820858     -5415.7961487812  8.40E-01
   169 Broy./Diag. 0.80E-01    1.5     0.01921750     -5416.4035735054 -6.07E-01
   170 Broy./Diag. 0.80E-01    1.5     0.02712597     -5416.7932797718 -3.90E-01
   171 Broy./Diag. 0.80E-01    1.5     0.06555851     -5417.5128186289 -7.20E-01
   172 Broy./Diag. 0.80E-01    1.5     0.01191826     -5417.9755576004 -4.63E-01
   173 Broy./Diag. 0.80E-01    1.5     0.00497628     -5418.7739958620 -7.98E-01
   174 Broy./Diag. 0.80E-01    1.5     0.01523320     -5418.7501452257  2.39E-02
   175 Broy./Diag. 0.80E-01    1.5     0.03057766     -5418.2156621939  5.34E-01
   176 Broy./Diag. 0.80E-01    1.5     0.10884537     -5417.8763842274  3.39E-01
   177 Broy./Diag. 0.80E-01    1.5     0.02189554     -5416.4232839586  1.45E+00
   178 Broy./Diag. 0.80E-01    1.5     0.09427773     -5416.6994917954 -2.76E-01
   179 Broy./Diag. 0.80E-01    1.5     0.07705129     -5418.0007805840 -1.30E+00
   180 Broy./Diag. 0.80E-01    1.5     0.00399027     -5417.1661259401  8.35E-01
   181 Broy./Diag. 0.80E-01    1.5     0.05409302     -5416.7186581632  4.47E-01
   182 Broy./Diag. 0.80E-01    1.5     0.06552082     -5416.7462521656 -2.76E-02
   183 Broy./Diag. 0.80E-01    1.5     0.02531027     -5418.8459242308 -2.10E+00
   184 Broy./Diag. 0.80E-01    1.5     0.06345278     -5419.0074295907 -1.62E-01
   185 Broy./Diag. 0.80E-01    1.5     0.07618390     -5419.2717286810 -2.64E-01
   186 Broy./Diag. 0.80E-01    1.5     0.01598238     -5418.6283697176  6.43E-01
   187 Broy./Diag. 0.80E-01    1.5     0.13696313     -5418.6241920324  4.18E-03
   188 Broy./Diag. 0.80E-01    1.5     0.08398748     -5419.5189082861 -8.95E-01
   189 Broy./Diag. 0.80E-01    1.5     0.18684902     -5418.3960979624  1.12E+00
   190 Broy./Diag. 0.80E-01    1.5     0.03697082     -5419.0030776437 -6.07E-01
   191 Broy./Diag. 0.80E-01    1.5     0.09503874     -5418.7892684313  2.14E-01
   192 Broy./Diag. 0.80E-01    1.5     0.08215360     -5420.1651118080 -1.38E+00
   193 Broy./Diag. 0.80E-01    1.5     0.12814450     -5414.9165309562  5.25E+00
   194 Broy./Diag. 0.80E-01    1.5     0.01404697     -5406.9666059192  7.95E+00
   195 Broy./Diag. 0.80E-01    1.5     0.07214701     -5407.0751552672 -1.09E-01
   196 Broy./Diag. 0.80E-01    1.5     0.12552778     -5410.9171872752 -3.84E+00
   197 Broy./Diag. 0.80E-01    1.5     0.16161047     -5417.6793474765 -6.76E+00
   198 Broy./Diag. 0.80E-01    1.5     0.07251790     -5415.5656091982  2.11E+00
   199 Broy./Diag. 0.80E-01    1.5     0.06481216     -5417.9228887369 -2.36E+00
   200 Broy./Diag. 0.80E-01    1.5     0.12187744     -5419.3884860489 -1.47E+00
   201 Broy./Diag. 0.80E-01    1.5     0.09000754     -5420.2751821329 -8.87E-01
   202 Broy./Diag. 0.80E-01    1.5     0.06886474     -5413.8459982059  6.43E+00
   203 Broy./Diag. 0.80E-01    1.5     0.06283254     -5415.7369894250 -1.89E+00
   204 Broy./Diag. 0.80E-01    1.5     0.02605286     -5414.9161140232  8.21E-01
   205 Broy./Diag. 0.80E-01    1.5     0.02361565     -5414.2113067159  7.05E-01
   206 Broy./Diag. 0.80E-01    1.5     0.11512726     -5412.8438288071  1.37E+00
   207 Broy./Diag. 0.80E-01    1.5     0.02773788     -5421.1302820660 -8.29E+00
   208 Broy./Diag. 0.80E-01    1.5     0.08542160     -5421.1800556257 -4.98E-02
   209 Broy./Diag. 0.80E-01    1.5     0.03595432     -5419.6309175210  1.55E+00
   210 Broy./Diag. 0.80E-01    1.5     0.04408557     -5418.6052183317  1.03E+00
   211 Broy./Diag. 0.80E-01    1.5     0.07665817     -5418.1937588021  4.11E-01
   212 Broy./Diag. 0.80E-01    1.5     0.03699551     -5416.8375108328  1.36E+00
   213 Broy./Diag. 0.80E-01    1.5     0.15812502     -5415.3592808883  1.48E+00
   214 Broy./Diag. 0.80E-01    1.5     0.10483229     -5409.4051698292  5.95E+00
   215 Broy./Diag. 0.80E-01    1.5     0.03939773     -5407.2806635224  2.12E+00
   216 Broy./Diag. 0.80E-01    1.5     0.11419793     -5409.7885672842 -2.51E+00
   217 Broy./Diag. 0.80E-01    1.5     0.18982160     -5409.9825955011 -1.94E-01
   218 Broy./Diag. 0.80E-01    1.5     0.08638810     -5418.8739529685 -8.89E+00
   219 Broy./Diag. 0.80E-01    1.5     0.08070020     -5417.1918703514  1.68E+00
   220 Broy./Diag. 0.80E-01    1.5     0.05504304     -5415.2824755703  1.91E+00
   221 Broy./Diag. 0.80E-01    1.5     0.01758169     -5416.6865233657 -1.40E+00
   222 Broy./Diag. 0.80E-01    1.5     0.10791931     -5417.0251019692 -3.39E-01
   223 Broy./Diag. 0.80E-01    1.5     0.08273145     -5412.8256921290  4.20E+00
   224 Broy./Diag. 0.80E-01    1.5     0.02572390     -5416.6864404102 -3.86E+00
   225 Broy./Diag. 0.80E-01    1.5     0.15037757     -5416.6902130562 -3.77E-03
   226 Broy./Diag. 0.80E-01    1.5     0.02456451     -5409.0185586889  7.67E+00
   227 Broy./Diag. 0.80E-01    1.5     0.05380958     -5410.5742853764 -1.56E+00
   228 Broy./Diag. 0.80E-01    1.5     0.07757859     -5411.5806386197 -1.01E+00
   229 Broy./Diag. 0.80E-01    1.5     0.13874561     -5411.9520552544 -3.71E-01
   230 Broy./Diag. 0.80E-01    1.5     0.10531298     -5415.3225813180 -3.37E+00
   231 Broy./Diag. 0.80E-01    1.5     0.02007839     -5415.9911497663 -6.69E-01
   232 Broy./Diag. 0.80E-01    1.5     0.02917906     -5415.7693989684  2.22E-01
   233 Broy./Diag. 0.80E-01    1.5     0.13681163     -5414.7535033877  1.02E+00
   234 Broy./Diag. 0.80E-01    1.5     0.12111509     -5412.1044192073  2.65E+00
   235 Broy./Diag. 0.80E-01    1.5     0.02942685     -5412.6585607473 -5.54E-01
   236 Broy./Diag. 0.80E-01    1.5     0.04740581     -5410.5032500255  2.16E+00
   237 Broy./Diag. 0.80E-01    1.5     0.02424636     -5414.3491100495 -3.85E+00
   238 Broy./Diag. 0.80E-01    1.5     0.02765203     -5412.6583094915  1.69E+00
   239 Broy./Diag. 0.80E-01    1.5     0.02263434     -5415.6074784331 -2.95E+00
   240 Broy./Diag. 0.80E-01    1.5     0.10990490     -5416.5556772776 -9.48E-01
   241 Broy./Diag. 0.80E-01    1.5     0.06717150     -5413.7958811163  2.76E+00
   242 Broy./Diag. 0.80E-01    1.5     0.05765703     -5415.1114002330 -1.32E+00
   243 Broy./Diag. 0.80E-01    1.5     0.01314007     -5415.6515797854 -5.40E-01
   244 Broy./Diag. 0.80E-01    1.5     0.05034352     -5416.4547458898 -8.03E-01
   245 Broy./Diag. 0.80E-01    1.5     0.01978334     -5416.5943504251 -1.40E-01
   246 Broy./Diag. 0.80E-01    1.5     0.03795547     -5416.7397500047 -1.45E-01
   247 Broy./Diag. 0.80E-01    1.5     0.07808185     -5416.8776601258 -1.38E-01
   248 Broy./Diag. 0.80E-01    1.5     0.01038751     -5416.3258981702  5.52E-01
   249 Broy./Diag. 0.80E-01    1.5     0.11888574     -5414.9872167366  1.34E+00
   250 Broy./Diag. 0.80E-01    1.5     0.04991091     -5414.9997015535 -1.25E-02
   251 Broy./Diag. 0.80E-01    1.5     0.01686093     -5417.3321717287 -2.33E+00
   252 Broy./Diag. 0.80E-01    1.5     0.04065279     -5416.9202861773  4.12E-01
   253 Broy./Diag. 0.80E-01    1.5     0.04860700     -5416.6424130530  2.78E-01
   254 Broy./Diag. 0.80E-01    1.5     0.03256127     -5417.7312944621 -1.09E+00
   255 Broy./Diag. 0.80E-01    1.5     0.02980805     -5418.2010899199 -4.70E-01
   256 Broy./Diag. 0.80E-01    1.5     0.08289127     -5418.5813523323 -3.80E-01
   257 Broy./Diag. 0.80E-01    1.5     0.07469049     -5417.9962313473  5.85E-01
   258 Broy./Diag. 0.80E-01    1.5     0.12279619     -5418.9352595414 -9.39E-01
   259 Broy./Diag. 0.80E-01    1.5     0.19391203     -5415.3201408932  3.62E+00
   260 Broy./Diag. 0.80E-01    1.5     0.10286351     -5416.5698867184 -1.25E+00
   261 Broy./Diag. 0.80E-01    1.5     0.16186330     -5418.7387953934 -2.17E+00
   262 Broy./Diag. 0.80E-01    1.5     0.07874817     -5416.9725642569  1.77E+00
   263 Broy./Diag. 0.80E-01    1.5     0.12393666     -5419.5048006937 -2.53E+00
   264 Broy./Diag. 0.80E-01    1.5     0.14847773     -5417.8652294850  1.64E+00
   265 Broy./Diag. 0.80E-01    1.5     0.03477606     -5418.6738224663 -8.09E-01
   266 Broy./Diag. 0.80E-01    1.5     0.03227459     -5418.9078597735 -2.34E-01
   267 Broy./Diag. 0.80E-01    1.5     0.03989441     -5419.4061132967 -4.98E-01
   268 Broy./Diag. 0.80E-01    1.5     0.17861812     -5419.1240750478  2.82E-01
   269 Broy./Diag. 0.80E-01    1.5     0.09647522     -5417.9657349038  1.16E+00
   270 Broy./Diag. 0.80E-01    1.5     0.05544281     -5417.7615473525  2.04E-01
   271 Broy./Diag. 0.80E-01    1.5     0.10955537     -5418.2804386647 -5.19E-01
   272 Broy./Diag. 0.80E-01    1.5     0.06952829     -5415.2837539952  3.00E+00
   273 Broy./Diag. 0.80E-01    1.5     0.02933236     -5416.6305933883 -1.35E+00
   274 Broy./Diag. 0.80E-01    1.5     0.14452255     -5415.5792670196  1.05E+00
   275 Broy./Diag. 0.80E-01    1.5     0.05709587     -5417.3712243608 -1.79E+00
   276 Broy./Diag. 0.80E-01    1.5     0.06463189     -5418.0352251238 -6.64E-01
   277 Broy./Diag. 0.80E-01    1.5     0.07835544     -5417.8235393604  2.12E-01
   278 Broy./Diag. 0.80E-01    1.5     0.14520269     -5418.2608004018 -4.37E-01
   279 Broy./Diag. 0.80E-01    1.5     0.04676632     -5417.8737556022  3.87E-01
   280 Broy./Diag. 0.80E-01    1.5     0.03270583     -5418.1521638624 -2.78E-01
   281 Broy./Diag. 0.80E-01    1.5     0.05261793     -5417.2154593531  9.37E-01
   282 Broy./Diag. 0.80E-01    1.5     0.05944445     -5417.8832132147 -6.68E-01
   283 Broy./Diag. 0.80E-01    1.5     0.12971506     -5417.4792309251  4.04E-01
   284 Broy./Diag. 0.80E-01    1.5     0.05531816     -5417.5959096145 -1.17E-01
   285 Broy./Diag. 0.80E-01    1.5     0.16414762     -5417.5938325904  2.08E-03
   286 Broy./Diag. 0.80E-01    1.5     0.11245285     -5412.2494740694  5.34E+00
   287 Broy./Diag. 0.80E-01    1.5     0.04225295     -5418.2669496180 -6.02E+00
   288 Broy./Diag. 0.80E-01    1.5     0.07763455     -5418.8791256011 -6.12E-01
   289 Broy./Diag. 0.80E-01    1.5     0.19216597     -5417.1371900476  1.74E+00
   290 Broy./Diag. 0.80E-01    1.5     0.16688687     -5410.0076479218  7.13E+00
   291 Broy./Diag. 0.80E-01    1.5     0.04097374     -5413.6497455246 -3.64E+00
   292 Broy./Diag. 0.80E-01    1.5     0.12483797     -5413.9805618681 -3.31E-01
   293 Broy./Diag. 0.80E-01    1.5     0.12980875     -5413.4455347521  5.35E-01
   294 Broy./Diag. 0.80E-01    1.5     0.07817267     -5415.6573033321 -2.21E+00
   295 Broy./Diag. 0.80E-01    1.5     0.03460925     -5416.2127590693 -5.55E-01
   296 Broy./Diag. 0.80E-01    1.5     0.14594807     -5415.2056332865  1.01E+00
   297 Broy./Diag. 0.80E-01    1.5     0.10912708     -5416.0926854010 -8.87E-01
   298 Broy./Diag. 0.80E-01    1.5     0.05649477     -5405.8969400592  1.02E+01
   299 Broy./Diag. 0.80E-01    1.5     0.12862154     -5410.9505949570 -5.05E+00
   300 Broy./Diag. 0.80E-01    1.5     0.10058321     -5409.6882663284  1.26E+00
   301 Broy./Diag. 0.80E-01    1.5     0.01898493     -5413.1554774358 -3.47E+00
   302 Broy./Diag. 0.80E-01    1.5     0.10011288     -5412.6276043480  5.28E-01
   303 Broy./Diag. 0.80E-01    1.5     0.12630396     -5412.9608716990 -3.33E-01
   304 Broy./Diag. 0.80E-01    1.5     0.07159177     -5411.3964230149  1.56E+00
   305 Broy./Diag. 0.80E-01    1.5     0.16384864     -5410.1221612496  1.27E+00
   306 Broy./Diag. 0.80E-01    1.5     0.05320241     -5414.9877748883 -4.87E+00
   307 Broy./Diag. 0.80E-01    1.5     0.08670219     -5412.5127966553  2.47E+00
   308 Broy./Diag. 0.80E-01    1.5     0.15504106     -5411.2871266459  1.23E+00
   309 Broy./Diag. 0.80E-01    1.5     0.04009458     -5414.2164957301 -2.93E+00
   310 Broy./Diag. 0.80E-01    1.5     0.07317586     -5413.1844047107  1.03E+00
   311 Broy./Diag. 0.80E-01    1.5     0.02033823     -5414.3975135329 -1.21E+00
   312 Broy./Diag. 0.80E-01    1.5     0.17830475     -5414.0438104486  3.54E-01
   313 Broy./Diag. 0.80E-01    1.5     0.09932679     -5416.8470327729 -2.80E+00
   314 Broy./Diag. 0.80E-01    1.5     0.04642088     -5417.6767004626 -8.30E-01
   315 Broy./Diag. 0.80E-01    1.5     0.09067162     -5415.9137454643  1.76E+00
   316 Broy./Diag. 0.80E-01    1.5     0.02938741     -5418.6684008829 -2.75E+00
   317 Broy./Diag. 0.80E-01    1.5     0.04395503     -5418.3310240209  3.37E-01
   318 Broy./Diag. 0.80E-01    1.5     0.05072651     -5417.5198959339  8.11E-01
   319 Broy./Diag. 0.80E-01    1.5     0.08877048     -5415.9401568758  1.58E+00
   320 Broy./Diag. 0.80E-01    1.5     0.03313724     -5414.1478909046  1.79E+00
   321 Broy./Diag. 0.80E-01    1.5     0.23956772     -5412.1822271706  1.97E+00
   322 Broy./Diag. 0.80E-01    1.5     0.04235350     -5416.7699523462 -4.59E+00
   323 Broy./Diag. 0.80E-01    1.5     0.07412597     -5416.0993254818  6.71E-01
   324 Broy./Diag. 0.80E-01    1.5     0.03107795     -5419.1838388509 -3.08E+00
   325 Broy./Diag. 0.80E-01    1.5     0.12771255     -5419.7551089738 -5.71E-01
   326 Broy./Diag. 0.80E-01    1.5     0.09619139     -5419.6174969678  1.38E-01
   327 Broy./Diag. 0.80E-01    1.5     0.07917045     -5417.9138062017  1.70E+00
   328 Broy./Diag. 0.80E-01    1.5     0.17917062     -5414.8554858869  3.06E+00
   329 Broy./Diag. 0.80E-01    1.5     0.08945672     -5413.7131523414  1.14E+00
   330 Broy./Diag. 0.80E-01    1.5     0.08230711     -5415.1418687854 -1.43E+00
   331 Broy./Diag. 0.80E-01    1.5     0.07929606     -5412.9816334054  2.16E+00
   332 Broy./Diag. 0.80E-01    1.5     0.11164730     -5408.6498333689  4.33E+00
   333 Broy./Diag. 0.80E-01    1.5     0.06054992     -5417.0760557539 -8.43E+00
   334 Broy./Diag. 0.80E-01    1.5     0.04441615     -5417.1943468354 -1.18E-01
   335 Broy./Diag. 0.80E-01    1.5     0.02963217     -5417.2021718333 -7.82E-03
   336 Broy./Diag. 0.80E-01    1.5     0.05879004     -5416.8284726153  3.74E-01
   337 Broy./Diag. 0.80E-01    1.5     0.08159726     -5416.4018586992  4.27E-01
   338 Broy./Diag. 0.80E-01    1.5     0.08582004     -5416.0808485871  3.21E-01
   339 Broy./Diag. 0.80E-01    1.5     0.39159356     -5417.2580642862 -1.18E+00
   340 Broy./Diag. 0.80E-01    1.5     0.23586082     -5411.8229269184  5.44E+00
   341 Broy./Diag. 0.80E-01    1.5     0.01771854     -5415.6917355737 -3.87E+00
   342 Broy./Diag. 0.80E-01    1.5     0.11659017     -5416.4345590603 -7.43E-01
   343 Broy./Diag. 0.80E-01    1.5     0.18824825     -5417.2923212018 -8.58E-01
   344 Broy./Diag. 0.80E-01    1.5     0.30744460     -5411.7584678449  5.53E+00
   345 Broy./Diag. 0.80E-01    1.5     0.09321621     -5415.7687029097 -4.01E+00
   346 Broy./Diag. 0.80E-01    1.5     0.13179977     -5413.6541337413  2.11E+00
   347 Broy./Diag. 0.80E-01    1.5     0.05805971     -5413.6319346368  2.22E-02
   348 Broy./Diag. 0.80E-01    1.5     0.06895324     -5414.7016555898 -1.07E+00
   349 Broy./Diag. 0.80E-01    1.5     0.13012223     -5415.9206967361 -1.22E+00
   350 Broy./Diag. 0.80E-01    1.5     0.26993590     -5413.6687279676  2.25E+00
   351 Broy./Diag. 0.80E-01    1.5     0.07848922     -5414.6190643921 -9.50E-01
   352 Broy./Diag. 0.80E-01    1.5     0.18930085     -5413.9340735720  6.85E-01
   353 Broy./Diag. 0.80E-01    1.5     0.36871875     -5413.0788165709  8.55E-01
   354 Broy./Diag. 0.80E-01    1.5     0.24839037     -5399.4394755688  1.36E+01
   355 Broy./Diag. 0.80E-01    1.5     0.07558276     -5414.2933678212 -1.49E+01
   356 Broy./Diag. 0.80E-01    1.5     0.16991527     -5416.5733340966 -2.28E+00
   357 Broy./Diag. 0.80E-01    1.5     0.27028170     -5404.6826174153  1.19E+01
   358 Broy./Diag. 0.80E-01    1.5     0.33034082     -5416.5437618315 -1.19E+01
   359 Broy./Diag. 0.80E-01    1.5     0.08099963     -5404.3526078492  1.22E+01
   360 Broy./Diag. 0.80E-01    1.5     0.19577394     -5403.4113292245  9.41E-01
   361 Broy./Diag. 0.80E-01    1.5     0.11905728     -5402.6732833926  7.38E-01
   362 Broy./Diag. 0.80E-01    1.5     0.19267228     -5410.7933249054 -8.12E+00
   363 Broy./Diag. 0.80E-01    1.5     0.07123056     -5412.4269612354 -1.63E+00
   364 Broy./Diag. 0.80E-01    1.5     0.15915701     -5412.1849022791  2.42E-01
   365 Broy./Diag. 0.80E-01    1.5     0.15224540     -5417.0025146368 -4.82E+00
   366 Broy./Diag. 0.80E-01    1.5     0.10201180     -5414.5401254616  2.46E+00
   367 Broy./Diag. 0.80E-01    1.5     0.08596296     -5417.5052433224 -2.97E+00
   368 Broy./Diag. 0.80E-01    1.5     0.04868823     -5415.3087090250  2.20E+00
   369 Broy./Diag. 0.80E-01    1.5     0.13636937     -5415.7753701257 -4.67E-01
   370 Broy./Diag. 0.80E-01    1.5     0.18928478     -5417.6491917418 -1.87E+00
   371 Broy./Diag. 0.80E-01    1.5     0.21199391     -5393.8893661542  2.38E+01
   372 Broy./Diag. 0.80E-01    1.5     0.16513346     -5417.3117043068 -2.34E+01
   373 Broy./Diag. 0.80E-01    1.5     0.12484759     -5415.1423580815  2.17E+00
   374 Broy./Diag. 0.80E-01    1.5     0.10870405     -5406.9917336147  8.15E+00
   375 Broy./Diag. 0.80E-01    1.5     0.05425090     -5414.0751802085 -7.08E+00
   376 Broy./Diag. 0.80E-01    1.5     0.03271353     -5409.1210366012  4.95E+00
