 DBCSR| CPU Multiplication driver                                           XSMM (U)
 DBCSR| Multrec recursion limit                                              512 (U)
 DBCSR| Multiplication stack size                                           1000 (D)
 DBCSR| Maximum elements for images                                    UNLIMITED (U)
 DBCSR| Multiplicative factor virtual images                                   1 (U)
 DBCSR| Use multiplication densification                                       T (D)
 DBCSR| Multiplication size stacks                                             3 (U)
 DBCSR| Use memory pool for CPU allocation                                     F (U)
 DBCSR| Number of 3D layers                                               SINGLE (U)
 DBCSR| Use MPI memory allocation                                              F (U)
 DBCSR| Use RMA algorithm                                                      F (U)
 DBCSR| Use Communication thread                                               T (U)
 DBCSR| Communication thread load                                             87 (D)
 DBCSR| MPI: My process id                                                     0
 DBCSR| MPI: Number of processes                                             128
 DBCSR| OMP: Current number of threads                                         1
 DBCSR| OMP: Max number of threads                                             1
 DBCSR| Split modifier for TAS multiplication algorithm                  1.0E+00 (U)


  **** **** ******  **  PROGRAM STARTED AT               2023-05-03 17:04:31.112
 ***** ** ***  *** **   PROGRAM STARTED ON                             nid004578
 **    ****   ******    PROGRAM STARTED BY                                cahart
 ***** **    ** ** **   PROGRAM PROCESS ID                                179482
  **** **  *******  **  PROGRAM STARTED IN /mnt/lustre/a2fs-work2/work/e05/e05/c
                                           ahart/postdoc/masters/pt3ni/yike-111/
                                           fm/Ni-2_Pt-0/other/raw_official_revpb
                                           e-d3_dzvp_4-4-1_4e-2_4e-3_16_100_2000
                                           /scf-4E-3

 CP2K| version string:                                       CP2K version 2023.1
 CP2K| source code revision number:                                  git:b888bd8
 CP2K| cp2kflags: omp libint fftw3 libxc elpa parallel scalapack xsmm plumed2 mk
 CP2K|            l
 CP2K| is freely available from                            https://www.cp2k.org/
 CP2K| Program compiled at                          Tue Jan 24 12:43:13 GMT 2023
 CP2K| Program compiled on                                                  ln03
 CP2K| Program compiled for                                              ARCHER2
 CP2K| Data directory path    /mnt/lustre/a2fs-work1/work/y07/shared/apps/core/c
 CP2K| Input file name                                                 input.inp

 GLOBAL| Force Environment number                                              1
 GLOBAL| Basis set file name                                        BASIS_MOLOPT
 GLOBAL| Potential file name                                      GTH_POTENTIALS
 GLOBAL| MM Potential file name                                     MM_POTENTIAL
 GLOBAL| Coordinate file name                                         struct.xyz
 GLOBAL| Method name                                                        CP2K
 GLOBAL| Project name                                                      Pt3Ni
 GLOBAL| Run type                                                         ENERGY
 GLOBAL| FFT library                                                       FFTW3
 GLOBAL| Diagonalization library                                            ELPA
 GLOBAL| DGEMM library                                                      BLAS
 GLOBAL| Minimum number of eigenvectors for ELPA usage                        16
 GLOBAL| Orthonormality check for eigenvectors                          DISABLED
 GLOBAL| Matrix multiplication library                                 ScaLAPACK
 GLOBAL| All-to-all communication in single precision                          F
 GLOBAL| FFTs using library dependent lengths                                  F
 GLOBAL| Grid backend                                                       AUTO
 GLOBAL| Global print level                                               MEDIUM
 GLOBAL| MPI I/O enabled                                                       T
 GLOBAL| Total number of message passing processes                           128
 GLOBAL| Number of threads for this process                                    1
 GLOBAL| This output is from process                                           0
 GLOBAL| Stack size for threads created by OpenMP (OMP_STACKSIZE)        default
 GLOBAL| CPU model name                          AMD EPYC 7742 64-Core Processor
 GLOBAL| CPUID                                                              1002

 MEMORY| system memory details [Kb]
 MEMORY|                        rank 0           min           max       average
 MEMORY| MemTotal            263528084     263528084     263528084     263528084
 MEMORY| MemFree             236537276     236537276     236537276     236537276
 MEMORY| Buffers                 25824         25824         25824         25824
 MEMORY| Cached                5696028       5696028       5696028       5696028
 MEMORY| Slab                  2273692       2273692       2273692       2273692
 MEMORY| SReclaimable           152388        152388        152388        152388
 MEMORY| MemLikelyFree       242411516     242411516     242411516     242411516


 *** Fundamental physical constants (SI units) ***

 *** Literature: B. J. Mohr and B. N. Taylor,
 ***             CODATA recommended values of the fundamental physical
 ***             constants: 2006, Web Version 5.1
 ***             http://physics.nist.gov/constants

 Speed of light in vacuum [m/s]                             2.99792458000000E+08
 Magnetic constant or permeability of vacuum [N/A**2]       1.25663706143592E-06
 Electric constant or permittivity of vacuum [F/m]          8.85418781762039E-12
 Planck constant (h) [J*s]                                  6.62606896000000E-34
 Planck constant (h-bar) [J*s]                              1.05457162825177E-34
 Elementary charge [C]                                      1.60217648700000E-19
 Electron mass [kg]                                         9.10938215000000E-31
 Electron g factor [ ]                                     -2.00231930436220E+00
 Proton mass [kg]                                           1.67262163700000E-27
 Fine-structure constant                                    7.29735253760000E-03
 Rydberg constant [1/m]                                     1.09737315685270E+07
 Avogadro constant [1/mol]                                  6.02214179000000E+23
 Boltzmann constant [J/K]                                   1.38065040000000E-23
 Atomic mass unit [kg]                                      1.66053878200000E-27
 Bohr radius [m]                                            5.29177208590000E-11

 *** Conversion factors ***

 [u] -> [a.u.]                                              1.82288848426455E+03
 [Angstrom] -> [Bohr] = [a.u.]                              1.88972613288564E+00
 [a.u.] = [Bohr] -> [Angstrom]                              5.29177208590000E-01
 [a.u.] -> [s]                                              2.41888432650478E-17
 [a.u.] -> [fs]                                             2.41888432650478E-02
 [a.u.] -> [J]                                              4.35974393937059E-18
 [a.u.] -> [N]                                              8.23872205491840E-08
 [a.u.] -> [K]                                              3.15774647902944E+05
 [a.u.] -> [kJ/mol]                                         2.62549961709828E+03
 [a.u.] -> [kcal/mol]                                       6.27509468713739E+02
 [a.u.] -> [Pa]                                             2.94210107994716E+13
 [a.u.] -> [bar]                                            2.94210107994716E+08
 [a.u.] -> [atm]                                            2.90362800883016E+08
 [a.u.] -> [eV]                                             2.72113838565563E+01
 [a.u.] -> [Hz]                                             6.57968392072181E+15
 [a.u.] -> [1/cm] (wave numbers)                            2.19474631370540E+05
 [a.u./Bohr**2] -> [1/cm]                                   5.14048714338585E+03
 

 CELL_TOP| Volume [angstrom^3]:                                      2213.590108
 CELL_TOP| Vector a [angstrom     9.378     0.000     0.000   |a| =     9.378000
 CELL_TOP| Vector b [angstrom    -4.689     8.122     0.000   |b| =     9.378358
 CELL_TOP| Vector c [angstrom     0.000     0.000    29.062   |c| =    29.061899
 CELL_TOP| Angle (b,c), alpha [degree]:                                90.000000
 CELL_TOP| Angle (a,c), beta  [degree]:                                90.000000
 CELL_TOP| Angle (a,b), gamma [degree]:                               119.998736
 CELL_TOP| Numerically orthorhombic:                                          NO
 CELL_TOP| Periodicity                                                       XYZ

 GENERATE|  Preliminary Number of Bonds generated:                             0
 GENERATE|  Achieved consistency in connectivity generation.

 CELL| Volume [angstrom^3]:                                          2213.590108
 CELL| Vector a [angstrom]:       9.378     0.000     0.000   |a| =     9.378000
 CELL| Vector b [angstrom]:      -4.689     8.122     0.000   |b| =     9.378358
 CELL| Vector c [angstrom]:       0.000     0.000    29.062   |c| =    29.061899
 CELL| Angle (b,c), alpha [degree]:                                    90.000000
 CELL| Angle (a,c), beta  [degree]:                                    90.000000
 CELL| Angle (a,b), gamma [degree]:                                   119.998736
 CELL| Numerically orthorhombic:                                              NO
 CELL| Periodicity                                                           XYZ

 CELL_REF| Volume [angstrom^3]:                                      2213.590108
 CELL_REF| Vector a [angstrom     9.378     0.000     0.000   |a| =     9.378000
 CELL_REF| Vector b [angstrom    -4.689     8.122     0.000   |b| =     9.378358
 CELL_REF| Vector c [angstrom     0.000     0.000    29.062   |c| =    29.061899
 CELL_REF| Angle (b,c), alpha [degree]:                                90.000000
 CELL_REF| Angle (a,c), beta  [degree]:                                90.000000
 CELL_REF| Angle (a,b), gamma [degree]:                               119.998736
 CELL_REF| Numerically orthorhombic:                                          NO
 CELL_REF| Periodicity                                                       XYZ

 *** WARNING in cryssym.F:165 :: Symmetry library SPGLIB not available ***


 *******************************************************************************
                                    Kpoints
 *******************************************************************************
 BRILLOUIN| K-point scheme                                        Monkhorst-Pack
 BRILLOUIN| K-Point grid                                             4    4    1
 BRILLOUIN| Accuracy in Symmetry determination                      0.100000E-05
 BRILLOUIN| K-Point point group symmetrization                               OFF
 BRILLOUIN| Wavefunction type                                            COMPLEX
 BRILLOUIN| List of Kpoints [2 Pi/Bohr]                                        8
 BRILLOUIN| Number           Weight            X              Y              Z
 BRILLOUIN|     1           0.12500       -0.37500       -0.37500        0.00000
 BRILLOUIN|     2           0.12500       -0.37500       -0.12500        0.00000
 BRILLOUIN|     3           0.12500       -0.37500        0.12500        0.00000
 BRILLOUIN|     4           0.12500       -0.37500        0.37500        0.00000
 BRILLOUIN|     5           0.12500       -0.12500       -0.37500        0.00000
 BRILLOUIN|     6           0.12500       -0.12500       -0.12500        0.00000
 BRILLOUIN|     7           0.12500       -0.12500        0.12500        0.00000
 BRILLOUIN|     8           0.12500       -0.12500        0.37500        0.00000
 *******************************************************************************

 *******************************************************************************
 *******************************************************************************
 **                                                                           **
 **     #####                         ##              ##                      **
 **    ##   ##            ##          ##              ##                      **
 **   ##     ##                       ##            ######                    **
 **   ##     ##  ##   ##  ##   #####  ##  ##   ####   ##    #####    #####    **
 **   ##     ##  ##   ##  ##  ##      ## ##   ##      ##   ##   ##  ##   ##   **
 **   ##  ## ##  ##   ##  ##  ##      ####     ###    ##   ######   ######    **
 **    ##  ###   ##   ##  ##  ##      ## ##      ##   ##   ##       ##        **
 **     #######   #####   ##   #####  ##  ##  ####    ##    #####   ##        **
 **           ##                                                    ##        **
 **                                                                           **
 **                                                ... make the atoms dance   **
 **                                                                           **
 **            Copyright (C) by CP2K developers group (2000-2022)             **
 **                      J. Chem. Phys. 152, 194103 (2020)                    **
 **                                                                           **
 *******************************************************************************

 *** WARNING in qs_environment.F:1510 :: Kpoints: Different number of MOs   ***
 *** requested. The number of beta MOs will be set to the number alpha MOs. ***


 DFT| Spin unrestricted (spin-polarized) Kohn-Sham calculation               UKS
 DFT| Multiplicity                                                            31
 DFT| Number of spin states                                                    2
 DFT| Charge                                                                   0
 DFT| Self-interaction correction (SIC)                                       NO
 DFT| Cutoffs: density                                              1.000000E-10
 DFT|          gradient                                             1.000000E-10
 DFT|          tau                                                  1.000000E-10
 DFT|          cutoff_smoothing_range                               0.000000E+00
 DFT| XC density smoothing                                                  NONE
 DFT| XC derivatives                                                          PW

 FUNCTIONAL| PBE:
 FUNCTIONAL| revPBE, Yingkay Zhang and Weitao Yang, Phys. Rev. Letter, vol 80,n 
 FUNCTIONAL| 4, p. 890, (1998){spin polarized}                                  

 vdW POTENTIAL|                                                   Pair Potential
 vdW POTENTIAL|          DFT-D3 (Version 3.1)
 vdW POTENTIAL|          Potential Form: S. Grimme et al, JCP 132: 154104 (2010)
 vdW POTENTIAL|          Zero Damping
 vdW POTENTIAL|          Cutoff Radius [Bohr]:                             20.00
 vdW POTENTIAL|          s6 Scaling Factor:                               1.0000
 vdW POTENTIAL|          sr6 Scaling Factor:                              1.2170
 vdW POTENTIAL|          s8 Scaling Factor:                               0.7220
 vdW POTENTIAL|          Cutoff for CN calculation:                   0.1000E-05

 QS| Method:                                                                 GPW
 QS| Density plane wave grid type                        NON-SPHERICAL FULLSPACE
 QS| Number of grid levels:                                                    4
 QS| Density cutoff [a.u.]:                                                250.0
 QS| Multi grid cutoff [a.u.]: 1) grid level                               250.0
 QS|                           2) grid level                                83.3
 QS|                           3) grid level                                27.8
 QS|                           4) grid level                                 9.3
 QS| Grid level progression factor:                                          3.0
 QS| Relative density cutoff [a.u.]:                                        30.0
 QS| Interaction thresholds: eps_pgf_orb:                                1.0E-07
 QS|                         eps_filter_matrix:                          0.0E+00
 QS|                         eps_core_charge:                            1.0E-16
 QS|                         eps_rho_gspace:                             1.0E-14
 QS|                         eps_rho_rspace:                             1.0E-14
 QS|                         eps_gvg_rspace:                             1.0E-07
 QS|                         eps_ppl:                                    1.0E-02
 QS|                         eps_ppnl:                                   1.0E-09


 ATOMIC KIND INFORMATION

  1. Atomic kind: Pt_1                                  Number of atoms:      12

     Orbital Basis Set                                        DZVP-MOLOPT-SR-GTH

       Number of orbital shell sets:                                           1
       Number of orbital shells:                                               8
       Number of primitive Cartesian functions:                                6
       Number of Cartesian basis functions:                                   31
       Number of spherical basis functions:                                   26
       Norm type:                                                              2

       Normalised Cartesian orbitals:

                        Set   Shell   Orbital            Exponent    Coefficient

                          1       1    2s                3.630668      -0.465500
                                                         3.114659       1.833739
                                                         1.999981      -1.065057
                                                         0.885340      -0.082598
                                                         0.330796      -0.055321
                                                         0.105770      -0.086847

                          1       2    3s                3.630668      -0.135752
                                                         3.114659       0.957679
                                                         1.999981      -0.689189
                                                         0.885340      -0.354326
                                                         0.330796       0.034544
                                                         0.105770       0.142189

                          1       3    4s                3.630668       0.505359
                                                         3.114659      -0.006270
                                                         1.999981      -0.343543
                                                         0.885340       1.287020
                                                         0.330796      -0.969575
                                                         0.105770       0.202315

                          1       4    3px               3.630668       3.197609
                                                         3.114659      -1.334416
                                                         1.999981      -1.492782
                                                         0.885340      -0.792435
                                                         0.330796      -0.047636
                                                         0.105770       0.000678
                          1       4    3py               3.630668       3.197609
                                                         3.114659      -1.334416
                                                         1.999981      -1.492782
                                                         0.885340      -0.792435
                                                         0.330796      -0.047636
                                                         0.105770       0.000678
                          1       4    3pz               3.630668       3.197609
                                                         3.114659      -1.334416
                                                         1.999981      -1.492782
                                                         0.885340      -0.792435
                                                         0.330796      -0.047636
                                                         0.105770       0.000678

                          1       5    4px               3.630668      -0.376239
                                                         3.114659       0.453823
                                                         1.999981      -0.390177
                                                         0.885340      -0.279003
                                                         0.330796       0.102288
                                                         0.105770       0.074263
                          1       5    4py               3.630668      -0.376239
                                                         3.114659       0.453823
                                                         1.999981      -0.390177
                                                         0.885340      -0.279003
                                                         0.330796       0.102288
                                                         0.105770       0.074263
                          1       5    4pz               3.630668      -0.376239
                                                         3.114659       0.453823
                                                         1.999981      -0.390177
                                                         0.885340      -0.279003
                                                         0.330796       0.102288
                                                         0.105770       0.074263

                          1       6    4dx2              3.630668      -4.869087
                                                         3.114659       3.422358
                                                         1.999981       0.942384
                                                         0.885340       0.638592
                                                         0.330796       0.100711
                                                         0.105770       0.004297
                          1       6    4dxy              3.630668      -8.433506
                                                         3.114659       5.927699
                                                         1.999981       1.632257
                                                         0.885340       1.106073
                                                         0.330796       0.174436
                                                         0.105770       0.007443
                          1       6    4dxz              3.630668      -8.433506
                                                         3.114659       5.927699
                                                         1.999981       1.632257
                                                         0.885340       1.106073
                                                         0.330796       0.174436
                                                         0.105770       0.007443
                          1       6    4dy2              3.630668      -4.869087
                                                         3.114659       3.422358
                                                         1.999981       0.942384
                                                         0.885340       0.638592
                                                         0.330796       0.100711
                                                         0.105770       0.004297
                          1       6    4dyz              3.630668      -8.433506
                                                         3.114659       5.927699
                                                         1.999981       1.632257
                                                         0.885340       1.106073
                                                         0.330796       0.174436
                                                         0.105770       0.007443
                          1       6    4dz2              3.630668      -4.869087
                                                         3.114659       3.422358
                                                         1.999981       0.942384
                                                         0.885340       0.638592
                                                         0.330796       0.100711
                                                         0.105770       0.004297

                          1       7    5dx2              3.630668       2.000513
                                                         3.114659      -0.906481
                                                         1.999981      -0.863477
                                                         0.885340      -0.429902
                                                         0.330796      -0.023611
                                                         0.105770       0.032414
                          1       7    5dxy              3.630668       3.464990
                                                         3.114659      -1.570070
                                                         1.999981      -1.495586
                                                         0.885340      -0.744611
                                                         0.330796      -0.040896
                                                         0.105770       0.056142
                          1       7    5dxz              3.630668       3.464990
                                                         3.114659      -1.570070
                                                         1.999981      -1.495586
                                                         0.885340      -0.744611
                                                         0.330796      -0.040896
                                                         0.105770       0.056142
                          1       7    5dy2              3.630668       2.000513
                                                         3.114659      -0.906481
                                                         1.999981      -0.863477
                                                         0.885340      -0.429902
                                                         0.330796      -0.023611
                                                         0.105770       0.032414
                          1       7    5dyz              3.630668       3.464990
                                                         3.114659      -1.570070
                                                         1.999981      -1.495586
                                                         0.885340      -0.744611
                                                         0.330796      -0.040896
                                                         0.105770       0.056142
                          1       7    5dz2              3.630668       2.000513
                                                         3.114659      -0.906481
                                                         1.999981      -0.863477
                                                         0.885340      -0.429902
                                                         0.330796      -0.023611
                                                         0.105770       0.032414

                          1       8    5fx3              3.630668       1.265943
                                                         3.114659      -1.633790
                                                         1.999981      -0.318265
                                                         0.885340      -0.300856
                                                         0.330796      -0.100756
                                                         0.105770       0.007484
                          1       8    5fx2y             3.630668       2.830734
                                                         3.114659      -3.653265
                                                         1.999981      -0.711663
                                                         0.885340      -0.672734
                                                         0.330796      -0.225296
                                                         0.105770       0.016736
                          1       8    5fx2z             3.630668       2.830734
                                                         3.114659      -3.653265
                                                         1.999981      -0.711663
                                                         0.885340      -0.672734
                                                         0.330796      -0.225296
                                                         0.105770       0.016736
                          1       8    5fxy2             3.630668       2.830734
                                                         3.114659      -3.653265
                                                         1.999981      -0.711663
                                                         0.885340      -0.672734
                                                         0.330796      -0.225296
                                                         0.105770       0.016736
                          1       8    5fxyz             3.630668       4.902974
                                                         3.114659      -6.327641
                                                         1.999981      -1.232636
                                                         0.885340      -1.165210
                                                         0.330796      -0.390225
                                                         0.105770       0.028987
                          1       8    5fxz2             3.630668       2.830734
                                                         3.114659      -3.653265
                                                         1.999981      -0.711663
                                                         0.885340      -0.672734
                                                         0.330796      -0.225296
                                                         0.105770       0.016736
                          1       8    5fy3              3.630668       1.265943
                                                         3.114659      -1.633790
                                                         1.999981      -0.318265
                                                         0.885340      -0.300856
                                                         0.330796      -0.100756
                                                         0.105770       0.007484
                          1       8    5fy2z             3.630668       2.830734
                                                         3.114659      -3.653265
                                                         1.999981      -0.711663
                                                         0.885340      -0.672734
                                                         0.330796      -0.225296
                                                         0.105770       0.016736
                          1       8    5fyz2             3.630668       2.830734
                                                         3.114659      -3.653265
                                                         1.999981      -0.711663
                                                         0.885340      -0.672734
                                                         0.330796      -0.225296
                                                         0.105770       0.016736
                          1       8    5fz3              3.630668       1.265943
                                                         3.114659      -1.633790
                                                         1.999981      -0.318265
                                                         0.885340      -0.300856
                                                         0.330796      -0.100756
                                                         0.105770       0.007484

       Atomic covalent radius [Angstrom]:                                  1.300

       Atomic van der Waals radius [Angstrom]:                             1.750

     GTH Potential information for                                   GTH-PBE-q18

       Description:                       Goedecker-Teter-Hutter pseudopotential
                                           Goedecker et al., PRB 54, 1703 (1996)
                                          Hartwigsen et al., PRB 58, 3641 (1998)
                                                      Krack, TCA 114, 145 (2005)

       Gaussian exponent of the core charge distribution:               2.000000
       Electronic configuration (s p d ...):                           3   6   9

       Parameters of the local part of the GTH pseudopotential:

                          rloc        C1          C2          C3          C4
                        0.500000    8.814323   -0.292509

       Parameters of the non-local part of the GTH pseudopotential:

                   l      r(l)      h(i,j,l)

                   0    0.298002   -5.968385   24.212900  -13.789679
                                   24.212900  -53.687634   35.604799
                                  -13.789679   35.604799  -28.260433
                   1    0.360172   -6.668659    7.170659    0.766904
                                    7.170659   -7.207661   -1.814825
                                    0.766904   -1.814825    1.289806
                   2    0.340532   -8.589905    9.410122
                                    9.410122  -10.670075

  2. Atomic kind: Ni_1                                  Number of atoms:       6

     Orbital Basis Set                                        DZVP-MOLOPT-SR-GTH

       Number of orbital shell sets:                                           1
       Number of orbital shells:                                               8
       Number of primitive Cartesian functions:                                6
       Number of Cartesian basis functions:                                   31
       Number of spherical basis functions:                                   26
       Norm type:                                                              2

       Normalised Cartesian orbitals:

                        Set   Shell   Orbital            Exponent    Coefficient

                          1       1    2s               10.077428      -0.684558
                                                         5.847736      -0.844524
                                                         2.494033       1.088856
                                                         0.988355       0.395503
                                                         0.344978       0.010224
                                                         0.099466      -0.003250

                          1       2    3s               10.077428       0.096747
                                                         5.847736       0.162504
                                                         2.494033      -0.297192
                                                         0.988355      -0.319752
                                                         0.344978       0.088318
                                                         0.099466       0.118587

                          1       3    4s               10.077428       0.036437
                                                         5.847736      -0.381480
                                                         2.494033       0.003759
                                                         0.988355      -1.048256
                                                         0.344978       0.855825
                                                         0.099466      -0.176350

                          1       4    3px              10.077428      -3.133913
                                                         5.847736       3.027656
                                                         2.494033       2.353227
                                                         0.988355       0.554184
                                                         0.344978       0.019462
                                                         0.099466      -0.000291
                          1       4    3py              10.077428      -3.133913
                                                         5.847736       3.027656
                                                         2.494033       2.353227
                                                         0.988355       0.554184
                                                         0.344978       0.019462
                                                         0.099466      -0.000291
                          1       4    3pz              10.077428      -3.133913
                                                         5.847736       3.027656
                                                         2.494033       2.353227
                                                         0.988355       0.554184
                                                         0.344978       0.019462
                                                         0.099466      -0.000291

                          1       5    4px              10.077428      -0.112729
                                                         5.847736      -0.114008
                                                         2.494033      -0.347303
                                                         0.988355      -0.110323
                                                         0.344978       0.154096
                                                         0.099466       0.058386
                          1       5    4py              10.077428      -0.112729
                                                         5.847736      -0.114008
                                                         2.494033      -0.347303
                                                         0.988355      -0.110323
                                                         0.344978       0.154096
                                                         0.099466       0.058386
                          1       5    4pz              10.077428      -0.112729
                                                         5.847736      -0.114008
                                                         2.494033      -0.347303
                                                         0.988355      -0.110323
                                                         0.344978       0.154096
                                                         0.099466       0.058386

                          1       6    4dx2             10.077428       8.232726
                                                         5.847736       9.105758
                                                         2.494033       2.849835
                                                         0.988355       0.554319
                                                         0.344978       0.067245
                                                         0.099466       0.001940
                          1       6    4dxy             10.077428      14.259500
                                                         5.847736      15.771636
                                                         2.494033       4.936060
                                                         0.988355       0.960109
                                                         0.344978       0.116472
                                                         0.099466       0.003360
                          1       6    4dxz             10.077428      14.259500
                                                         5.847736      15.771636
                                                         2.494033       4.936060
                                                         0.988355       0.960109
                                                         0.344978       0.116472
                                                         0.099466       0.003360
                          1       6    4dy2             10.077428       8.232726
                                                         5.847736       9.105758
                                                         2.494033       2.849835
                                                         0.988355       0.554319
                                                         0.344978       0.067245
                                                         0.099466       0.001940
                          1       6    4dyz             10.077428      14.259500
                                                         5.847736      15.771636
                                                         2.494033       4.936060
                                                         0.988355       0.960109
                                                         0.344978       0.116472
                                                         0.099466       0.003360
                          1       6    4dz2             10.077428       8.232726
                                                         5.847736       9.105758
                                                         2.494033       2.849835
                                                         0.988355       0.554319
                                                         0.344978       0.067245
                                                         0.099466       0.001940

                          1       7    5dx2             10.077428      -2.715373
                                                         5.847736      -4.020640
                                                         2.494033      -1.397569
                                                         0.988355      -0.076143
                                                         0.344978       0.033435
                                                         0.099466       0.026032
                          1       7    5dxy             10.077428      -4.703164
                                                         5.847736      -6.963952
                                                         2.494033      -2.420661
                                                         0.988355      -0.131883
                                                         0.344978       0.057911
                                                         0.099466       0.045088
                          1       7    5dxz             10.077428      -4.703164
                                                         5.847736      -6.963952
                                                         2.494033      -2.420661
                                                         0.988355      -0.131883
                                                         0.344978       0.057911
                                                         0.099466       0.045088
                          1       7    5dy2             10.077428      -2.715373
                                                         5.847736      -4.020640
                                                         2.494033      -1.397569
                                                         0.988355      -0.076143
                                                         0.344978       0.033435
                                                         0.099466       0.026032
                          1       7    5dyz             10.077428      -4.703164
                                                         5.847736      -6.963952
                                                         2.494033      -2.420661
                                                         0.988355      -0.131883
                                                         0.344978       0.057911
                                                         0.099466       0.045088
                          1       7    5dz2             10.077428      -2.715373
                                                         5.847736      -4.020640
                                                         2.494033      -1.397569
                                                         0.988355      -0.076143
                                                         0.344978       0.033435
                                                         0.099466       0.026032

                          1       8    5fx3             10.077428      -0.467694
                                                         5.847736       0.618100
                                                         2.494033       0.066069
                                                         0.988355       0.262898
                                                         0.344978       0.004720
                                                         0.099466       0.007748
                          1       8    5fx2y            10.077428      -1.045795
                                                         5.847736       1.382114
                                                         2.494033       0.147734
                                                         0.988355       0.587859
                                                         0.344978       0.010555
                                                         0.099466       0.017325
                          1       8    5fx2z            10.077428      -1.045795
                                                         5.847736       1.382114
                                                         2.494033       0.147734
                                                         0.988355       0.587859
                                                         0.344978       0.010555
                                                         0.099466       0.017325
                          1       8    5fxy2            10.077428      -1.045795
                                                         5.847736       1.382114
                                                         2.494033       0.147734
                                                         0.988355       0.587859
                                                         0.344978       0.010555
                                                         0.099466       0.017325
                          1       8    5fxyz            10.077428      -1.811371
                                                         5.847736       2.393892
                                                         2.494033       0.255883
                                                         0.988355       1.018201
                                                         0.344978       0.018282
                                                         0.099466       0.030008
                          1       8    5fxz2            10.077428      -1.045795
                                                         5.847736       1.382114
                                                         2.494033       0.147734
                                                         0.988355       0.587859
                                                         0.344978       0.010555
                                                         0.099466       0.017325
                          1       8    5fy3             10.077428      -0.467694
                                                         5.847736       0.618100
                                                         2.494033       0.066069
                                                         0.988355       0.262898
                                                         0.344978       0.004720
                                                         0.099466       0.007748
                          1       8    5fy2z            10.077428      -1.045795
                                                         5.847736       1.382114
                                                         2.494033       0.147734
                                                         0.988355       0.587859
                                                         0.344978       0.010555
                                                         0.099466       0.017325
                          1       8    5fyz2            10.077428      -1.045795
                                                         5.847736       1.382114
                                                         2.494033       0.147734
                                                         0.988355       0.587859
                                                         0.344978       0.010555
                                                         0.099466       0.017325
                          1       8    5fz3             10.077428      -0.467694
                                                         5.847736       0.618100
                                                         2.494033       0.066069
                                                         0.988355       0.262898
                                                         0.344978       0.004720
                                                         0.099466       0.007748

       Atomic covalent radius [Angstrom]:                                  1.150

       Atomic van der Waals radius [Angstrom]:                             1.630

     GTH Potential information for                                   GTH-PBE-q18

       Description:                       Goedecker-Teter-Hutter pseudopotential
                                           Goedecker et al., PRB 54, 1703 (1996)
                                          Hartwigsen et al., PRB 58, 3641 (1998)
                                                      Krack, TCA 114, 145 (2005)

       Gaussian exponent of the core charge distribution:               4.081633
       Electronic configuration (s p d ...):                           4   6   8

       Parameters of the local part of the GTH pseudopotential:

                          rloc        C1          C2          C3          C4
                        0.350000    2.102166    0.648484

       Parameters of the non-local part of the GTH pseudopotential:

                   l      r(l)      h(i,j,l)

                   0    0.261295    0.622658    9.970227
                                    9.970227  -12.871507
                   1    0.224253  -11.142708   12.429566
                                   12.429566  -14.706861
                   2    0.215348  -12.628146

  3. Atomic kind: Pt_2                                  Number of atoms:       6

     Orbital Basis Set                                        DZVP-MOLOPT-SR-GTH

       Number of orbital shell sets:                                           1
       Number of orbital shells:                                               8
       Number of primitive Cartesian functions:                                6
       Number of Cartesian basis functions:                                   31
       Number of spherical basis functions:                                   26
       Norm type:                                                              2

       Normalised Cartesian orbitals:

                        Set   Shell   Orbital            Exponent    Coefficient

                          1       1    2s                3.630668      -0.465500
                                                         3.114659       1.833739
                                                         1.999981      -1.065057
                                                         0.885340      -0.082598
                                                         0.330796      -0.055321
                                                         0.105770      -0.086847

                          1       2    3s                3.630668      -0.135752
                                                         3.114659       0.957679
                                                         1.999981      -0.689189
                                                         0.885340      -0.354326
                                                         0.330796       0.034544
                                                         0.105770       0.142189

                          1       3    4s                3.630668       0.505359
                                                         3.114659      -0.006270
                                                         1.999981      -0.343543
                                                         0.885340       1.287020
                                                         0.330796      -0.969575
                                                         0.105770       0.202315

                          1       4    3px               3.630668       3.197609
                                                         3.114659      -1.334416
                                                         1.999981      -1.492782
                                                         0.885340      -0.792435
                                                         0.330796      -0.047636
                                                         0.105770       0.000678
                          1       4    3py               3.630668       3.197609
                                                         3.114659      -1.334416
                                                         1.999981      -1.492782
                                                         0.885340      -0.792435
                                                         0.330796      -0.047636
                                                         0.105770       0.000678
                          1       4    3pz               3.630668       3.197609
                                                         3.114659      -1.334416
                                                         1.999981      -1.492782
                                                         0.885340      -0.792435
                                                         0.330796      -0.047636
                                                         0.105770       0.000678

                          1       5    4px               3.630668      -0.376239
                                                         3.114659       0.453823
                                                         1.999981      -0.390177
                                                         0.885340      -0.279003
                                                         0.330796       0.102288
                                                         0.105770       0.074263
                          1       5    4py               3.630668      -0.376239
                                                         3.114659       0.453823
                                                         1.999981      -0.390177
                                                         0.885340      -0.279003
                                                         0.330796       0.102288
                                                         0.105770       0.074263
                          1       5    4pz               3.630668      -0.376239
                                                         3.114659       0.453823
                                                         1.999981      -0.390177
                                                         0.885340      -0.279003
                                                         0.330796       0.102288
                                                         0.105770       0.074263

                          1       6    4dx2              3.630668      -4.869087
                                                         3.114659       3.422358
                                                         1.999981       0.942384
                                                         0.885340       0.638592
                                                         0.330796       0.100711
                                                         0.105770       0.004297
                          1       6    4dxy              3.630668      -8.433506
                                                         3.114659       5.927699
                                                         1.999981       1.632257
                                                         0.885340       1.106073
                                                         0.330796       0.174436
                                                         0.105770       0.007443
                          1       6    4dxz              3.630668      -8.433506
                                                         3.114659       5.927699
                                                         1.999981       1.632257
                                                         0.885340       1.106073
                                                         0.330796       0.174436
                                                         0.105770       0.007443
                          1       6    4dy2              3.630668      -4.869087
                                                         3.114659       3.422358
                                                         1.999981       0.942384
                                                         0.885340       0.638592
                                                         0.330796       0.100711
                                                         0.105770       0.004297
                          1       6    4dyz              3.630668      -8.433506
                                                         3.114659       5.927699
                                                         1.999981       1.632257
                                                         0.885340       1.106073
                                                         0.330796       0.174436
                                                         0.105770       0.007443
                          1       6    4dz2              3.630668      -4.869087
                                                         3.114659       3.422358
                                                         1.999981       0.942384
                                                         0.885340       0.638592
                                                         0.330796       0.100711
                                                         0.105770       0.004297

                          1       7    5dx2              3.630668       2.000513
                                                         3.114659      -0.906481
                                                         1.999981      -0.863477
                                                         0.885340      -0.429902
                                                         0.330796      -0.023611
                                                         0.105770       0.032414
                          1       7    5dxy              3.630668       3.464990
                                                         3.114659      -1.570070
                                                         1.999981      -1.495586
                                                         0.885340      -0.744611
                                                         0.330796      -0.040896
                                                         0.105770       0.056142
                          1       7    5dxz              3.630668       3.464990
                                                         3.114659      -1.570070
                                                         1.999981      -1.495586
                                                         0.885340      -0.744611
                                                         0.330796      -0.040896
                                                         0.105770       0.056142
                          1       7    5dy2              3.630668       2.000513
                                                         3.114659      -0.906481
                                                         1.999981      -0.863477
                                                         0.885340      -0.429902
                                                         0.330796      -0.023611
                                                         0.105770       0.032414
                          1       7    5dyz              3.630668       3.464990
                                                         3.114659      -1.570070
                                                         1.999981      -1.495586
                                                         0.885340      -0.744611
                                                         0.330796      -0.040896
                                                         0.105770       0.056142
                          1       7    5dz2              3.630668       2.000513
                                                         3.114659      -0.906481
                                                         1.999981      -0.863477
                                                         0.885340      -0.429902
                                                         0.330796      -0.023611
                                                         0.105770       0.032414

                          1       8    5fx3              3.630668       1.265943
                                                         3.114659      -1.633790
                                                         1.999981      -0.318265
                                                         0.885340      -0.300856
                                                         0.330796      -0.100756
                                                         0.105770       0.007484
                          1       8    5fx2y             3.630668       2.830734
                                                         3.114659      -3.653265
                                                         1.999981      -0.711663
                                                         0.885340      -0.672734
                                                         0.330796      -0.225296
                                                         0.105770       0.016736
                          1       8    5fx2z             3.630668       2.830734
                                                         3.114659      -3.653265
                                                         1.999981      -0.711663
                                                         0.885340      -0.672734
                                                         0.330796      -0.225296
                                                         0.105770       0.016736
                          1       8    5fxy2             3.630668       2.830734
                                                         3.114659      -3.653265
                                                         1.999981      -0.711663
                                                         0.885340      -0.672734
                                                         0.330796      -0.225296
                                                         0.105770       0.016736
                          1       8    5fxyz             3.630668       4.902974
                                                         3.114659      -6.327641
                                                         1.999981      -1.232636
                                                         0.885340      -1.165210
                                                         0.330796      -0.390225
                                                         0.105770       0.028987
                          1       8    5fxz2             3.630668       2.830734
                                                         3.114659      -3.653265
                                                         1.999981      -0.711663
                                                         0.885340      -0.672734
                                                         0.330796      -0.225296
                                                         0.105770       0.016736
                          1       8    5fy3              3.630668       1.265943
                                                         3.114659      -1.633790
                                                         1.999981      -0.318265
                                                         0.885340      -0.300856
                                                         0.330796      -0.100756
                                                         0.105770       0.007484
                          1       8    5fy2z             3.630668       2.830734
                                                         3.114659      -3.653265
                                                         1.999981      -0.711663
                                                         0.885340      -0.672734
                                                         0.330796      -0.225296
                                                         0.105770       0.016736
                          1       8    5fyz2             3.630668       2.830734
                                                         3.114659      -3.653265
                                                         1.999981      -0.711663
                                                         0.885340      -0.672734
                                                         0.330796      -0.225296
                                                         0.105770       0.016736
                          1       8    5fz3              3.630668       1.265943
                                                         3.114659      -1.633790
                                                         1.999981      -0.318265
                                                         0.885340      -0.300856
                                                         0.330796      -0.100756
                                                         0.105770       0.007484

       Atomic covalent radius [Angstrom]:                                  1.300

       Atomic van der Waals radius [Angstrom]:                             1.750

     GTH Potential information for                                   GTH-PBE-q18

       Description:                       Goedecker-Teter-Hutter pseudopotential
                                           Goedecker et al., PRB 54, 1703 (1996)
                                          Hartwigsen et al., PRB 58, 3641 (1998)
                                                      Krack, TCA 114, 145 (2005)

       Gaussian exponent of the core charge distribution:               2.000000
       Electronic configuration (s p d ...):                           3   6   9

       Parameters of the local part of the GTH pseudopotential:

                          rloc        C1          C2          C3          C4
                        0.500000    8.814323   -0.292509

       Parameters of the non-local part of the GTH pseudopotential:

                   l      r(l)      h(i,j,l)

                   0    0.298002   -5.968385   24.212900  -13.789679
                                   24.212900  -53.687634   35.604799
                                  -13.789679   35.604799  -28.260433
                   1    0.360172   -6.668659    7.170659    0.766904
                                    7.170659   -7.207661   -1.814825
                                    0.766904   -1.814825    1.289806
                   2    0.340532   -8.589905    9.410122
                                    9.410122  -10.670075

  4. Atomic kind: Pt_3                                  Number of atoms:       9

     Orbital Basis Set                                        DZVP-MOLOPT-SR-GTH

       Number of orbital shell sets:                                           1
       Number of orbital shells:                                               8
       Number of primitive Cartesian functions:                                6
       Number of Cartesian basis functions:                                   31
       Number of spherical basis functions:                                   26
       Norm type:                                                              2

       Normalised Cartesian orbitals:

                        Set   Shell   Orbital            Exponent    Coefficient

                          1       1    2s                3.630668      -0.465500
                                                         3.114659       1.833739
                                                         1.999981      -1.065057
                                                         0.885340      -0.082598
                                                         0.330796      -0.055321
                                                         0.105770      -0.086847

                          1       2    3s                3.630668      -0.135752
                                                         3.114659       0.957679
                                                         1.999981      -0.689189
                                                         0.885340      -0.354326
                                                         0.330796       0.034544
                                                         0.105770       0.142189

                          1       3    4s                3.630668       0.505359
                                                         3.114659      -0.006270
                                                         1.999981      -0.343543
                                                         0.885340       1.287020
                                                         0.330796      -0.969575
                                                         0.105770       0.202315

                          1       4    3px               3.630668       3.197609
                                                         3.114659      -1.334416
                                                         1.999981      -1.492782
                                                         0.885340      -0.792435
                                                         0.330796      -0.047636
                                                         0.105770       0.000678
                          1       4    3py               3.630668       3.197609
                                                         3.114659      -1.334416
                                                         1.999981      -1.492782
                                                         0.885340      -0.792435
                                                         0.330796      -0.047636
                                                         0.105770       0.000678
                          1       4    3pz               3.630668       3.197609
                                                         3.114659      -1.334416
                                                         1.999981      -1.492782
                                                         0.885340      -0.792435
                                                         0.330796      -0.047636
                                                         0.105770       0.000678

                          1       5    4px               3.630668      -0.376239
                                                         3.114659       0.453823
                                                         1.999981      -0.390177
                                                         0.885340      -0.279003
                                                         0.330796       0.102288
                                                         0.105770       0.074263
                          1       5    4py               3.630668      -0.376239
                                                         3.114659       0.453823
                                                         1.999981      -0.390177
                                                         0.885340      -0.279003
                                                         0.330796       0.102288
                                                         0.105770       0.074263
                          1       5    4pz               3.630668      -0.376239
                                                         3.114659       0.453823
                                                         1.999981      -0.390177
                                                         0.885340      -0.279003
                                                         0.330796       0.102288
                                                         0.105770       0.074263

                          1       6    4dx2              3.630668      -4.869087
                                                         3.114659       3.422358
                                                         1.999981       0.942384
                                                         0.885340       0.638592
                                                         0.330796       0.100711
                                                         0.105770       0.004297
                          1       6    4dxy              3.630668      -8.433506
                                                         3.114659       5.927699
                                                         1.999981       1.632257
                                                         0.885340       1.106073
                                                         0.330796       0.174436
                                                         0.105770       0.007443
                          1       6    4dxz              3.630668      -8.433506
                                                         3.114659       5.927699
                                                         1.999981       1.632257
                                                         0.885340       1.106073
                                                         0.330796       0.174436
                                                         0.105770       0.007443
                          1       6    4dy2              3.630668      -4.869087
                                                         3.114659       3.422358
                                                         1.999981       0.942384
                                                         0.885340       0.638592
                                                         0.330796       0.100711
                                                         0.105770       0.004297
                          1       6    4dyz              3.630668      -8.433506
                                                         3.114659       5.927699
                                                         1.999981       1.632257
                                                         0.885340       1.106073
                                                         0.330796       0.174436
                                                         0.105770       0.007443
                          1       6    4dz2              3.630668      -4.869087
                                                         3.114659       3.422358
                                                         1.999981       0.942384
                                                         0.885340       0.638592
                                                         0.330796       0.100711
                                                         0.105770       0.004297

                          1       7    5dx2              3.630668       2.000513
                                                         3.114659      -0.906481
                                                         1.999981      -0.863477
                                                         0.885340      -0.429902
                                                         0.330796      -0.023611
                                                         0.105770       0.032414
                          1       7    5dxy              3.630668       3.464990
                                                         3.114659      -1.570070
                                                         1.999981      -1.495586
                                                         0.885340      -0.744611
                                                         0.330796      -0.040896
                                                         0.105770       0.056142
                          1       7    5dxz              3.630668       3.464990
                                                         3.114659      -1.570070
                                                         1.999981      -1.495586
                                                         0.885340      -0.744611
                                                         0.330796      -0.040896
                                                         0.105770       0.056142
                          1       7    5dy2              3.630668       2.000513
                                                         3.114659      -0.906481
                                                         1.999981      -0.863477
                                                         0.885340      -0.429902
                                                         0.330796      -0.023611
                                                         0.105770       0.032414
                          1       7    5dyz              3.630668       3.464990
                                                         3.114659      -1.570070
                                                         1.999981      -1.495586
                                                         0.885340      -0.744611
                                                         0.330796      -0.040896
                                                         0.105770       0.056142
                          1       7    5dz2              3.630668       2.000513
[...]
      1       Pt     1      18.000    9.052   8.959            0.093     -0.011
      2       Pt     1      18.000    9.034   8.959            0.075      0.007
      3       Pt     1      18.000    9.053   8.925            0.128      0.022
      4       Pt     1      18.000    9.052   8.925            0.128      0.023
      5       Pt     1      18.000    9.050   8.952            0.099     -0.002
      6       Pt     1      18.000    9.033   8.954            0.079      0.014
      7       Pt     1      18.000    9.049   8.949            0.100      0.002
      8       Pt     1      18.000    9.032   8.951            0.081      0.017
      9       Pt     1      18.000    9.055   8.918            0.137      0.027
     10       Pt     1      18.000    9.056   8.918            0.138      0.027
     11       Pt     1      18.000    9.057   8.914            0.142      0.029
     12       Pt     1      18.000    9.056   8.914            0.142      0.030
     13       Ni     2      18.000    9.503   8.669            0.834     -0.171
     14       Ni     2      18.000    9.500   8.667            0.833     -0.166
     15       Ni     2      18.000    9.498   8.669            0.830     -0.167
     16       Ni     2      18.000    9.511   8.642            0.869     -0.153
     17       Pt     3      18.000    9.046   8.853            0.193      0.102
     18       Pt     3      18.000    9.045   8.851            0.194      0.104
     19       Ni     2      18.000    9.509   8.643            0.866     -0.152
     20       Ni     2      18.000    9.507   8.649            0.857     -0.156
     21       Pt     3      18.000    9.046   8.853            0.193      0.101
     22       Pt     3      18.000    9.045   8.849            0.196      0.105
     23       Pt     3      18.000    9.046   8.851            0.195      0.103
     24       Pt     3      18.000    9.046   8.849            0.197      0.105
     25       Pt     4      18.000    9.059   8.836            0.224      0.105
     26       Pt     4      18.000    9.029   8.873            0.156      0.098
     27       Ni     5      18.000    9.434   8.752            0.682     -0.185
     28       Pt     4      18.000    9.059   8.837            0.223      0.104
     29       Pt     4      18.000    9.059   8.834            0.225      0.107
     30       Pt     4      18.000    9.059   8.835            0.224      0.106
     31       Ni     5      18.000    9.435   8.748            0.687     -0.184
     32       Pt     4      18.000    9.029   8.872            0.156      0.099
     33       Ni     5      18.000    9.430   8.757            0.673     -0.188
     34       Pt     4      18.000    9.060   8.837            0.223      0.104
     35       Pt     4      18.000    9.058   8.834            0.225      0.108
     36       Pt     4      18.000    9.029   8.871            0.158      0.100
     37       Pt     6      18.000    9.048   8.850            0.197      0.102
     38       Pt     6      18.000    9.048   8.852            0.195      0.100
     39       Pt     6      18.000    9.047   8.850            0.197      0.103
     40       Pt     6      18.000    9.047   8.854            0.193      0.098
     41       Ni     7      18.000    9.509   8.646            0.862     -0.155
     42       Pt     6      18.000    9.047   8.852            0.195      0.101
     43       Ni     7      18.000    9.507   8.647            0.860     -0.154
     44       Pt     6      18.000    9.047   8.854            0.193      0.098
     45       Ni     7      18.000    9.511   8.644            0.866     -0.155
     46       Ni     7      18.000    9.499   8.669            0.830     -0.167
     47       Ni     7      18.000    9.503   8.666            0.837     -0.169
     48       Ni     7      18.000    9.501   8.667            0.834     -0.168
     49       Pt     8      18.000    9.057   8.916            0.142      0.027
     50       Pt     8      18.000    9.057   8.915            0.142      0.027
     51       Pt     8      18.000    9.057   8.920            0.137      0.024
     52       Pt     8      18.000    9.056   8.919            0.137      0.025
     53       Pt     8      18.000    9.035   8.952            0.083      0.013
     54       Pt     8      18.000    9.051   8.948            0.102      0.001
     55       Pt     8      18.000    9.036   8.955            0.081      0.009
     56       Pt     8      18.000    9.052   8.952            0.100     -0.004
     57       Pt     8      18.000    9.054   8.927            0.127      0.019
     58       Pt     8      18.000    9.054   8.927            0.127      0.020
     59       Pt     8      18.000    9.036   8.960            0.077      0.004
     60       Pt     8      18.000    9.053   8.958            0.095     -0.011

  Total Charge                                                            0.000
 !-----------------------------------------------------------------------------!

 ENERGY| Total FORCE_EVAL ( QS ) energy [a.u.]:            -7951.018382618006399

 -------------------------------------------------------------------------------
 -                                                                             -
 -                                DBCSR STATISTICS                             -
 -                                                                             -
 -------------------------------------------------------------------------------
 COUNTER                                    TOTAL       BLAS       SMM       ACC
 flops inhomo. stacks                           0       0.0%      0.0%      0.0%
 flops total                         0.000000E+00       0.0%      0.0%      0.0%
 flops max/rank                      0.000000E+00       0.0%      0.0%      0.0%
 matmuls inhomo. stacks                         0       0.0%      0.0%      0.0%
 matmuls total                                  0       0.0%      0.0%      0.0%
 number of processed stacks                     0       0.0%      0.0%      0.0%
 average stack size                                     0.0       0.0       0.0
 marketing flops                     0.000000E+00
 -------------------------------------------------------------------------------
 -                                                                             -
 -                      DBCSR MESSAGE PASSING PERFORMANCE                      -
 -                                                                             -
 -------------------------------------------------------------------------------
 ROUTINE             CALLS      AVE VOLUME [Bytes]
 MP_Bcast                1                     12.
 MP_Allreduce         1579                      8.
 MP_Alltoall         10342                 133347.
 -------------------------------------------------------------------------------

 -------------------------------------------------------------------------------
 -                                                                             -
 -                                DBM STATISTICS                               -
 -                                                                             -
 -------------------------------------------------------------------------------
    M  x    N  x    K                                          COUNT     PERCENT
 -------------------------------------------------------------------------------

 -------------------------------------------------------------------------------
 -                                                                             -
 -                                GRID STATISTICS                              -
 -                                                                             -
 -------------------------------------------------------------------------------
 LP    KERNEL             BACKEND                              COUNT     PERCENT
 6     collocate general  REF                                1301734      49.88%
 6     integrate general  REF                                1115772      42.76%
 0     integrate general  REF                                 122880       4.71%
 0     collocate general  REF                                  69120       2.65%
 -------------------------------------------------------------------------------

 MEMORY| Estimated peak process memory [MiB]                                 484

 -------------------------------------------------------------------------------
 ----                             MULTIGRID INFO                            ----
 -------------------------------------------------------------------------------
 count for grid        1:       49900352          cutoff [a.u.]          250.00
 count for grid        2:       17376053          cutoff [a.u.]           83.33
 count for grid        3:        6365983          cutoff [a.u.]           27.78
 count for grid        4:        2144902          cutoff [a.u.]            9.26
 total gridlevel count  :       75787290

 -------------------------------------------------------------------------------
 -                                                                             -
 -                         MESSAGE PASSING PERFORMANCE                         -
 -                                                                             -
 -------------------------------------------------------------------------------

 ROUTINE             CALLS      AVE VOLUME [Bytes]
 MP_Group                5
 MP_Bcast            10411                 414479.
 MP_Allreduce         1289                   1186.
 MP_Sync                 4
 MP_Alltoall           340                2149021.
 MP_SendRecv          3556                  12120.
 MP_ISendRecv         3048                  12120.
 MP_Wait             17922
 MP_ISend            13204                  47817.
 MP_IRecv            14716                  42382.
 MP_Recv              6240                 399360.
 MP_Write_All            2                 168576.
 -------------------------------------------------------------------------------


 -------------------------------------------------------------------------------
 -                                                                             -
 -                           R E F E R E N C E S                               -
 -                                                                             -
 -------------------------------------------------------------------------------
 
 CP2K version 2023.1, the CP2K developers group (2023).
 CP2K is freely available from https://www.cp2k.org/ .

 Kuehne,Thomas D.; Iannuzzi,Marcella; Del Ben,Mauro;
 Rybkin,Vladimir V.; Seewald,Patrick; Stein,Frederick; Laino,Teodoro;
 Khaliullin,Rustam Z.; Schuett,Ole; Schiffmann,Florian; Golze,Dorothea;
 Wilhelm,Jan; Chulkov,Sergey; Bani-Hashemian,Mohammad Hossein;
 Weber,Valery; Borstnik,Urban; Taillefumier,Mathieu;
 Jakobovits,Alice Shoshana; Lazzaro,Alfio; Pabst,Hans; Mueller,Tiziano;
 Schade,Robert; Guidon,Manuel; Andermatt,Samuel; Holmberg,Nico;
 Schenter,Gregory K.; Hehn,Anna; Bussy,Augustin; Belleflamme,Fabian;
 Tabacchi,Gloria; Gloess,Andreas; Lass,Michael; Bethune,Iain;
 Mundy,Christopher J.; Plessl,Christian; Watkins,Matt;
 VandeVondele,Joost; Krack,Matthias; Hutter,Juerg. 
 The Journal of Chemical Physics, 152 (19), (2020). 
 CP2K: An electronic structure and molecular dynamics software package -
 Quickstep: Efficient and accurate electronic structure calculations.
 https://doi.org/10.1063/5.0007045

 Goerigk, Lars; Hansen, Andreas; Bauer, Christoph; Ehrlich, Stephan;
 Najibi, Asim; Grimme, Stefan. , 19 (48), (2017). 
 A look at the density functional theory zoo with the advanced GMTKN55 database
 for general main group thermochemistry, kinetics and noncovalent interactions.
 https://doi.org/10.1039/C7CP04913G

 Schuett, Ole; Messmer, Peter; Hutter, Juerg; VandeVondele, Joost. 
 Electronic Structure Calculations on Graphics Processing Units, John
 Wiley & Sons, Ltd, 173-190 (2016). 
 GPU-Accelerated Sparse Matrix-Matrix Multiplication for
 Linear Scaling Density Functional Theory.
 https://doi.org/10.1002/9781118670712.ch8

 Heinecke, A; Henry, G; Hutchinson, M; Pabst, H. 
 Proceedings of Intl. Supercomputing Conference, 981-991 (2016). 
 LIBXSMM: Accelerating Small Matrix Multiplications
 by Runtime Code Generation.
 https://doi.org/10.1109/SC.2016.83

 Borstnik, U; VandeVondele, J; Weber, V; Hutter, J. 
 PARALLEL COMPUTING, 40 (5-6), 47-58 (2014). 
 Sparse matrix multiplication: The distributed block-compressed sparse
 row library.
 https://doi.org/10.1016/j.parco.2014.03.012

 Hutter, J; Iannuzzi, M; Schiffmann, F; VandeVondele, J. 
 WIREs Comput Mol Sci., 4 (1), 15-25 (2014). 
 CP2K: atomistic simulations of condensed matter systems.
 https://doi.org/10.1002/wcms.1159

 Marek, A; Blum, V; Johanni, R; Havu, V; Lang, B; Auckenthaler, T;
 Heinecke, A; Bungartz, H; Lederer, H. 
 Journal of Physics: Condensed Matter, 26 (21), (2014). 
 The ELPA library: scalable parallel eigenvalue solutions for
 electronic structure
 theory and computational science.
 https://doi.org/10.1088/0953-8984/26/21/213201

 Grimme, S; Ehrlich, S; Goerigk, L. 
 JOURNAL OF COMPUTATIONAL CHEMISTRY, 32, 1456 (2011). 
 Effect of the damping function in dispersion corrected density functional theory.
 https://doi.org/10.1002/jcc.21759

 Grimme, S; Antony, J; Ehrlich, S; Krieg, H. 
 JOURNAL OF CHEMICAL PHYSICS, 132 (15), 154104 (2010). 
 A consistent and accurate ab initio parametrization of density
 functional dispersion correction (DFT-D) for the 94 elements H-Pu.
 https://doi.org/10.1063/1.3382344

 VandeVondele, J; Hutter, J. 
 JOURNAL OF CHEMICAL PHYSICS, 127 (11), 114105 (2007). 
 Gaussian basis sets for accurate calculations on molecular systems in
 gas and condensed phases.
 https://doi.org/10.1063/1.2770708

 Krack, M. 
 THEORETICAL CHEMISTRY ACCOUNTS, 114 (1-3), 145-152 (2005). 
 Pseudopotentials for H to Kr optimized for gradient-corrected
 exchange-correlation functionals.
 https://doi.org/10.1007/s00214-005-0655-y

 VandeVondele, J; Krack, M; Mohamed, F; Parrinello, M; Chassaing, T;
 Hutter, J. COMPUTER PHYSICS COMMUNICATIONS, 167 (2), 103-128 (2005). 
 QUICKSTEP: Fast and accurate density functional calculations using a
 mixed Gaussian and plane waves approach.
 https://doi.org/10.1016/j.cpc.2004.12.014

 Frigo, M; Johnson, SG. 
 PROCEEDINGS OF THE IEEE, 93 (2), 216-231 (2005). 
 The design and implementation of FFTW3.
 https://doi.org/10.1109/JPROC.2004.840301

 Hartwigsen, C; Goedecker, S; Hutter, J. 
 PHYSICAL REVIEW B, 58 (7), 3641-3662 (1998). 
 Relativistic separable dual-space Gaussian pseudopotentials from H to Rn.
 https://doi.org/10.1103/PhysRevB.58.3641

 Zhang, YK; Yang, WT. 
 PHYSICAL REVIEW LETTERS, 80 (4), 890-890 (1998). 
 Comment on Generalized gradient approximation made simple.
 https://doi.org/10.1103/PhysRevLett.80.890

 Lippert, G; Hutter, J; Parrinello, M. 
 MOLECULAR PHYSICS, 92 (3), 477-487 (1997). 
 A hybrid Gaussian and plane wave density functional scheme.
 https://doi.org/10.1080/002689797170220

 Perdew, JP; Burke, K; Ernzerhof, M. 
 PHYSICAL REVIEW LETTERS, 77 (18), 3865-3868 (1996). 
 Generalized gradient approximation made simple.
 https://doi.org/10.1103/PhysRevLett.77.3865

 Goedecker, S; Teter, M; Hutter, J. 
 PHYSICAL REVIEW B, 54 (3), 1703-1710 (1996). 
 Separable dual-space Gaussian pseudopotentials.
 https://doi.org/10.1103/PhysRevB.54.1703


 -------------------------------------------------------------------------------
 -                                                                             -
 -                                T I M I N G                                  -
 -                                                                             -
 -------------------------------------------------------------------------------
 SUBROUTINE                       CALLS  ASD         SELF TIME        TOTAL TIME
                                MAXIMUM       AVERAGE  MAXIMUM  AVERAGE  MAXIMUM
 CP2K                                 1  1.0    0.138    0.143   77.055   77.061
 qs_energies                          1  2.0    0.001    0.001   75.284   75.285
 scf_env_do_scf                       1  3.0    0.000    0.002   61.898   61.924
 scf_env_do_scf_inner_loop            6  4.0    0.004    0.005   61.898   61.922
 qs_ks_update_qs_env                  6  5.0    0.000    0.000   21.066   21.069
 rebuild_ks_matrix                    6  6.0    0.001    0.002   20.931   20.934
 qs_ks_build_kohn_sham_matrix         6  7.0    0.004    0.005   20.930   20.934
 sum_up_and_integrate                 6  8.0    0.009    0.011   19.565   19.601
 integrate_v_rspace                  12  9.0    0.001    0.001   19.556   19.593
 qs_rho_update_rho_low                7  5.0    0.000    0.000   18.771   18.804
 calculate_rho_elec                  14  6.0    0.005    0.005   18.771   18.804
 grid_integrate_task_list            12 10.0    3.512   18.404    3.512   18.404
 rs_pw_transfer                     108  9.3    0.002    0.002   15.711   18.019
 mp_alltoall_d11v                  5228  9.3   15.557   17.855   15.557   17.855
 grid_collocate_task_list            14  7.0    3.746   17.597    3.746   17.597
 qs_scf_new_mos_kp                    6  5.0    0.000    0.000   17.303   17.311
 do_general_diag_kp                   6  6.0    0.004    0.005   17.303   17.311
 rs_gather_matrices                  12 10.0    0.010    0.016   14.951   17.233
 density_rs2pw                       14  7.0    0.001    0.001   14.871   17.162
 mp_waitany                       10684 11.2   14.742   17.133   14.742   17.133
 rs_pw_transfer_RS2PW_250            16  8.8    0.118    0.202   14.378   16.691
 cp_cfm_geeig                        12  7.0    0.000    0.001   14.041   14.075
 init_scf_run                         1  3.0    0.000    0.000   11.356   11.363
 scf_env_initial_rho_setup            1  4.0    0.001    0.002   11.356   11.363
 calculate_first_density_matrix       1  5.0    0.001    0.002    8.542    8.549
 read_kpoints_restart                 1  6.0    0.001    0.002    8.531    8.531
 cp_fm_read_unformatted             130  7.0    0.026    1.586    8.412    8.431
 mp_bcast_im                       7522  8.1    8.391    8.420    8.391    8.420
 cp_cfm_heevd                        12  8.0    7.844    7.968    7.844    7.968
 cp_cfm_triangular_multiply          36  8.0    4.762    4.847    4.762    4.847
 write_kpoints_restart                6  5.0    0.001    0.007    4.447    4.473
 cp_fm_write_unformatted            130  6.0    0.969    3.852    1.590    4.254
 copy_dbcsr_to_fm                   514  6.7    0.005    0.007    3.476    4.184
 dbcsr_desymmetrize_deep            898  7.4    0.048    0.067    3.108    3.824
 mp_alltoall_i22                   1734  8.7    3.004    3.790    3.004    3.790
 mp_send_dv                         130  7.0    0.617    3.242    0.617    3.242
 gspace_mixing                        5  5.0    0.003    0.004    2.871    2.872
 broyden_mixing                       5  6.0    2.762    2.765    2.769    2.771
 -------------------------------------------------------------------------------

 The number of warnings for this run is : 3
 
 -------------------------------------------------------------------------------
  **** **** ******  **  PROGRAM ENDED AT                 2023-05-03 17:05:50.609
 ***** ** ***  *** **   PROGRAM RAN ON                                 nid004578
 **    ****   ******    PROGRAM RAN BY                                    cahart
 ***** **    ** ** **   PROGRAM PROCESS ID                                179482
  **** **  *******  **  PROGRAM STOPPED IN /mnt/lustre/a2fs-work2/work/e05/e05/c
                                           ahart/postdoc/masters/pt3ni/yike-111/
                                           fm/Ni-2_Pt-0/other/raw_official_revpb
                                           e-d3_dzvp_4-4-1_4e-2_4e-3_16_100_2000
                                           /scf-4E-3
