 DBCSR| CPU Multiplication driver                                           XSMM (U)
 DBCSR| Multrec recursion limit                                              512 (U)
 DBCSR| Multiplication stack size                                           1000 (D)
 DBCSR| Maximum elements for images                                    UNLIMITED (U)
 DBCSR| Multiplicative factor virtual images                                   1 (U)
 DBCSR| Use multiplication densification                                       T (D)
 DBCSR| Multiplication size stacks                                             3 (U)
 DBCSR| Use memory pool for CPU allocation                                     F (U)
 DBCSR| Number of 3D layers                                               SINGLE (U)
 DBCSR| Use MPI memory allocation                                              F (U)
 DBCSR| Use RMA algorithm                                                      F (U)
 DBCSR| Use Communication thread                                               T (U)
 DBCSR| Communication thread load                                             87 (D)
 DBCSR| MPI: My process id                                                     0
 DBCSR| MPI: Number of processes                                             128
 DBCSR| OMP: Current number of threads                                         1
 DBCSR| OMP: Max number of threads                                             1
 DBCSR| Split modifier for TAS multiplication algorithm                  1.0E+00 (U)


  **** **** ******  **  PROGRAM STARTED AT               2023-02-14 13:33:45.496
 ***** ** ***  *** **   PROGRAM STARTED ON                             nid004131
 **    ****   ******    PROGRAM STARTED BY                                cahart
 ***** **    ** ** **   PROGRAM PROCESS ID                                141109
  **** **  *******  **  PROGRAM STARTED IN /mnt/lustre/a2fs-work2/work/e05/e05/c
                                           ahart/postdoc/masters/ni/archer2/slab
                                           /optimise/temp/scf_5e-4_mos-1000_alph
                                           a-0.08_beta-1.5_spin-0.7-0.5_periodic
                                           -xyz/search/700

 CP2K| version string:                 CP2K version 2023.1 (Development Version)
 CP2K| source code revision number:                                  git:964cd58
 CP2K| cp2kflags: omp libint fftw3 libxc elpa parallel scalapack xsmm plumed2 mk
 CP2K|            l
 CP2K| is freely available from                            https://www.cp2k.org/
 CP2K| Program compiled at                          Mon 13 Feb 17:05:14 GMT 2023
 CP2K| Program compiled on                                                  ln01
 CP2K| Program compiled for                                              ARCHER2
 CP2K| Data directory path    /work/e05/e05/cahart/cp2k/cp2k-2023.1/cp2k-2023.1-
 CP2K| Input file name                                                  cp2k.inp

 GLOBAL| Force Environment number                                              1
 GLOBAL| Basis set file name                                        BASIS_MOLOPT
 GLOBAL| Potential file name                                      GTH_POTENTIALS
 GLOBAL| MM Potential file name                                     MM_POTENTIAL
 GLOBAL| Coordinate file name                                      __STD_INPUT__
 GLOBAL| Method name                                                        CP2K
 GLOBAL| Project name                                                    Ni_bulk
 GLOBAL| Run type                                                         ENERGY
 GLOBAL| FFT library                                                       FFTW3
 GLOBAL| Diagonalization library                                            ELPA
 GLOBAL| DGEMM library                                                      BLAS
 GLOBAL| Minimum number of eigenvectors for ELPA usage                        16
 GLOBAL| Orthonormality check for eigenvectors                          DISABLED
 GLOBAL| Matrix multiplication library                                 ScaLAPACK
 GLOBAL| All-to-all communication in single precision                          F
 GLOBAL| FFTs using library dependent lengths                                  F
 GLOBAL| Grid backend                                                       AUTO
 GLOBAL| Global print level                                               MEDIUM
 GLOBAL| MPI I/O enabled                                                       T
 GLOBAL| Total number of message passing processes                           128
 GLOBAL| Number of threads for this process                                    1
 GLOBAL| This output is from process                                           0
 GLOBAL| Stack size for threads created by OpenMP (OMP_STACKSIZE)        default
 GLOBAL| CPU model name                          AMD EPYC 7742 64-Core Processor
 GLOBAL| CPUID                                                              1002

 MEMORY| system memory details [Kb]
 MEMORY|                        rank 0           min           max       average
 MEMORY| MemTotal            263528084     263528084     263528084     263528084
 MEMORY| MemFree             239207464     239207464     239207464     239207464
 MEMORY| Buffers                 34616         34616         34616         34616
 MEMORY| Cached                 685488        685488        685488        685488
 MEMORY| Slab                  1511060       1511060       1511060       1511060
 MEMORY| SReclaimable            99768         99768         99768         99768
 MEMORY| MemLikelyFree       240027336     240027336     240027336     240027336


 *** Fundamental physical constants (SI units) ***

 *** Literature: B. J. Mohr and B. N. Taylor,
 ***             CODATA recommended values of the fundamental physical
 ***             constants: 2006, Web Version 5.1
 ***             http://physics.nist.gov/constants

 Speed of light in vacuum [m/s]                             2.99792458000000E+08
 Magnetic constant or permeability of vacuum [N/A**2]       1.25663706143592E-06
 Electric constant or permittivity of vacuum [F/m]          8.85418781762039E-12
 Planck constant (h) [J*s]                                  6.62606896000000E-34
 Planck constant (h-bar) [J*s]                              1.05457162825177E-34
 Elementary charge [C]                                      1.60217648700000E-19
 Electron mass [kg]                                         9.10938215000000E-31
 Electron g factor [ ]                                     -2.00231930436220E+00
 Proton mass [kg]                                           1.67262163700000E-27
 Fine-structure constant                                    7.29735253760000E-03
 Rydberg constant [1/m]                                     1.09737315685270E+07
 Avogadro constant [1/mol]                                  6.02214179000000E+23
 Boltzmann constant [J/K]                                   1.38065040000000E-23
 Atomic mass unit [kg]                                      1.66053878200000E-27
 Bohr radius [m]                                            5.29177208590000E-11

 *** Conversion factors ***

 [u] -> [a.u.]                                              1.82288848426455E+03
 [Angstrom] -> [Bohr] = [a.u.]                              1.88972613288564E+00
 [a.u.] = [Bohr] -> [Angstrom]                              5.29177208590000E-01
 [a.u.] -> [s]                                              2.41888432650478E-17
 [a.u.] -> [fs]                                             2.41888432650478E-02
 [a.u.] -> [J]                                              4.35974393937059E-18
 [a.u.] -> [N]                                              8.23872205491840E-08
 [a.u.] -> [K]                                              3.15774647902944E+05
 [a.u.] -> [kJ/mol]                                         2.62549961709828E+03
 [a.u.] -> [kcal/mol]                                       6.27509468713739E+02
 [a.u.] -> [Pa]                                             2.94210107994716E+13
 [a.u.] -> [bar]                                            2.94210107994716E+08
 [a.u.] -> [atm]                                            2.90362800883016E+08
 [a.u.] -> [eV]                                             2.72113838565563E+01
 [a.u.] -> [Hz]                                             6.57968392072181E+15
 [a.u.] -> [1/cm] (wave numbers)                            2.19474631370540E+05
 [a.u./Bohr**2] -> [1/cm]                                   5.14048714338585E+03
 

 CELL_TOP| Volume [angstrom^3]:                                       983.249569
 CELL_TOP| Vector a [angstrom     7.012     0.000     0.000   |a| =     7.011596
 CELL_TOP| Vector b [angstrom     0.000     7.012     0.000   |b| =     7.011596
 CELL_TOP| Vector c [angstrom     0.000     0.000    20.000   |c| =    20.000000
 CELL_TOP| Angle (b,c), alpha [degree]:                                90.000000
 CELL_TOP| Angle (a,c), beta  [degree]:                                90.000000
 CELL_TOP| Angle (a,b), gamma [degree]:                                90.000000
 CELL_TOP| Numerically orthorhombic:                                         YES
 CELL_TOP| Periodicity                                                       XYZ

 GENERATE|  Preliminary Number of Bonds generated:                             0
 GENERATE|  Achieved consistency in connectivity generation.

 CELL| Volume [angstrom^3]:                                           983.249569
 CELL| Vector a [angstrom]:       7.012     0.000     0.000   |a| =     7.011596
 CELL| Vector b [angstrom]:       0.000     7.012     0.000   |b| =     7.011596
 CELL| Vector c [angstrom]:       0.000     0.000    20.000   |c| =    20.000000
 CELL| Angle (b,c), alpha [degree]:                                    90.000000
 CELL| Angle (a,c), beta  [degree]:                                    90.000000
 CELL| Angle (a,b), gamma [degree]:                                    90.000000
 CELL| Numerically orthorhombic:                                             YES
 CELL| Periodicity                                                           XYZ

 CELL_REF| Volume [angstrom^3]:                                       983.249569
 CELL_REF| Vector a [angstrom     7.012     0.000     0.000   |a| =     7.011596
 CELL_REF| Vector b [angstrom     0.000     7.012     0.000   |b| =     7.011596
 CELL_REF| Vector c [angstrom     0.000     0.000    20.000   |c| =    20.000000
 CELL_REF| Angle (b,c), alpha [degree]:                                90.000000
 CELL_REF| Angle (a,c), beta  [degree]:                                90.000000
 CELL_REF| Angle (a,b), gamma [degree]:                                90.000000
 CELL_REF| Numerically orthorhombic:                                         YES
 CELL_REF| Periodicity                                                       XYZ

 *** WARNING in cryssym.F:165 :: Symmetry library SPGLIB not available ***


 *******************************************************************************
                                    Kpoints
 *******************************************************************************
 BRILLOUIN| K-point scheme                                        Monkhorst-Pack
 BRILLOUIN| K-Point grid                                             4    4    1
 BRILLOUIN| Accuracy in Symmetry determination                      0.100000E-05
 BRILLOUIN| K-Point point group symmetrization                               OFF
 BRILLOUIN| Wavefunction type                                            COMPLEX
 BRILLOUIN| List of Kpoints [2 Pi/Bohr]                                        8
 BRILLOUIN| Number           Weight            X              Y              Z
 BRILLOUIN|     1           0.12500       -0.37500       -0.37500        0.00000
 BRILLOUIN|     2           0.12500       -0.37500       -0.12500        0.00000
 BRILLOUIN|     3           0.12500       -0.37500        0.12500        0.00000
 BRILLOUIN|     4           0.12500       -0.37500        0.37500        0.00000
 BRILLOUIN|     5           0.12500       -0.12500       -0.37500        0.00000
 BRILLOUIN|     6           0.12500       -0.12500       -0.12500        0.00000
 BRILLOUIN|     7           0.12500       -0.12500        0.12500        0.00000
 BRILLOUIN|     8           0.12500       -0.12500        0.37500        0.00000
 *******************************************************************************

 *******************************************************************************
 *******************************************************************************
 **                                                                           **
 **     #####                         ##              ##                      **
 **    ##   ##            ##          ##              ##                      **
 **   ##     ##                       ##            ######                    **
 **   ##     ##  ##   ##  ##   #####  ##  ##   ####   ##    #####    #####    **
 **   ##     ##  ##   ##  ##  ##      ## ##   ##      ##   ##   ##  ##   ##   **
 **   ##  ## ##  ##   ##  ##  ##      ####     ###    ##   ######   ######    **
 **    ##  ###   ##   ##  ##  ##      ## ##      ##   ##   ##       ##        **
 **     #######   #####   ##   #####  ##  ##  ####    ##    #####   ##        **
 **           ##                                                    ##        **
 **                                                                           **
 **                                                ... make the atoms dance   **
 **                                                                           **
 **            Copyright (C) by CP2K developers group (2000-2023)             **
 **                      J. Chem. Phys. 152, 194103 (2020)                    **
 **                                                                           **
 *******************************************************************************

 *** WARNING in qs_environment.F:1456 :: Number of electrons will be ***
 *** overwritten by NELEC_ALPHA and NELEC_BETA, multiplicity will be ***
 *** ignored.                                                        ***

 Number of electrons should be                                               576
 Sum of NELEC_ALPHA and NELEC_BETA is                                    576.000

 *** WARNING in qs_environment.F:1488 :: NELEC_ALPHA is not an integer, ***
 *** many features will not be supported.                               ***


 *** WARNING in qs_environment.F:1500 :: NELEC_BETA is not an integer, ***
 *** many features will not be supported.                              ***


 *** WARNING in qs_environment.F:1532 :: More ADDED_MOs requested for beta ***
 *** spin than available.                                                  ***


 *** WARNING in qs_environment.F:1548 :: More added MOs requested than     ***
 *** available. The full set of unoccupied MOs will be used. Use           ***
 *** 'ADDED_MOS -1' to always use all available MOs and to get rid of this ***
 *** warning.                                                              ***


 DFT| Spin unrestricted (spin-polarized) Kohn-Sham calculation               UKS
 DFT| Multiplicity                                                             1
 DFT| Number of spin states                                                    2
 DFT| Charge                                                                   0
 DFT| Self-interaction correction (SIC)                                       NO
 DFT| Cutoffs: density                                              1.000000E-10
 DFT|          gradient                                             1.000000E-10
 DFT|          tau                                                  1.000000E-10
 DFT|          cutoff_smoothing_range                               0.000000E+00
 DFT| XC density smoothing                                                  NONE
 DFT| XC derivatives                                                          PW

 FUNCTIONAL| PBE:
 FUNCTIONAL| J.P.Perdew, K.Burke, M.Ernzerhof, Phys. Rev. Letter, vol. 77, n 18,
 FUNCTIONAL|  pp. 3865-3868, (1996){spin polarized}                             

 vdW POTENTIAL|                                                   Pair Potential
 vdW POTENTIAL|          DFT-D3 (Version 3.1)
 vdW POTENTIAL|          Potential Form: S. Grimme et al, JCP 132: 154104 (2010)
 vdW POTENTIAL|          Zero Damping
 vdW POTENTIAL|          Cutoff Radius [Bohr]:                             20.00
 vdW POTENTIAL|          s6 Scaling Factor:                               1.0000
 vdW POTENTIAL|          sr6 Scaling Factor:                              1.2170
 vdW POTENTIAL|          s8 Scaling Factor:                               0.7220
 vdW POTENTIAL|          Cutoff for CN calculation:                   0.1000E-05

 QS| Method:                                                                 GPW
 QS| Density plane wave grid type                        NON-SPHERICAL FULLSPACE
 QS| Number of grid levels:                                                    5
 QS| Density cutoff [a.u.]:                                                300.0
 QS| Multi grid cutoff [a.u.]: 1) grid level                               300.0
 QS|                           2) grid level                               100.0
 QS|                           3) grid level                                33.3
 QS|                           4) grid level                                11.1
 QS|                           5) grid level                                 3.7
 QS| Grid level progression factor:                                          3.0
 QS| Relative density cutoff [a.u.]:                                        30.0
 QS| Interaction thresholds: eps_pgf_orb:                                1.0E-06
 QS|                         eps_filter_matrix:                          0.0E+00
 QS|                         eps_core_charge:                            1.0E-14
 QS|                         eps_rho_gspace:                             1.0E-12
 QS|                         eps_rho_rspace:                             1.0E-12
 QS|                         eps_gvg_rspace:                             1.0E-06
 QS|                         eps_ppl:                                    1.0E-02
 QS|                         eps_ppnl:                                   1.0E-08


 ATOMIC KIND INFORMATION

  1. Atomic kind: Ni_i                                  Number of atoms:      16

     Orbital Basis Set                                        DZVP-MOLOPT-SR-GTH

       Number of orbital shell sets:                                           1
       Number of orbital shells:                                               8
       Number of primitive Cartesian functions:                                6
       Number of Cartesian basis functions:                                   31
       Number of spherical basis functions:                                   26
       Norm type:                                                              2

       Normalised Cartesian orbitals:

                        Set   Shell   Orbital            Exponent    Coefficient

                          1       1    2s               10.077428      -0.684558
                                                         5.847736      -0.844524
                                                         2.494033       1.088856
                                                         0.988355       0.395503
                                                         0.344978       0.010224
                                                         0.099466      -0.003250

                          1       2    3s               10.077428       0.096747
                                                         5.847736       0.162504
                                                         2.494033      -0.297192
                                                         0.988355      -0.319752
                                                         0.344978       0.088318
                                                         0.099466       0.118587

                          1       3    4s               10.077428       0.036437
                                                         5.847736      -0.381480
                                                         2.494033       0.003759
                                                         0.988355      -1.048256
                                                         0.344978       0.855825
                                                         0.099466      -0.176350

                          1       4    3px              10.077428      -3.133913
                                                         5.847736       3.027656
                                                         2.494033       2.353227
                                                         0.988355       0.554184
                                                         0.344978       0.019462
                                                         0.099466      -0.000291
                          1       4    3py              10.077428      -3.133913
                                                         5.847736       3.027656
                                                         2.494033       2.353227
                                                         0.988355       0.554184
                                                         0.344978       0.019462
                                                         0.099466      -0.000291
                          1       4    3pz              10.077428      -3.133913
                                                         5.847736       3.027656
                                                         2.494033       2.353227
                                                         0.988355       0.554184
                                                         0.344978       0.019462
                                                         0.099466      -0.000291

                          1       5    4px              10.077428      -0.112729
                                                         5.847736      -0.114008
                                                         2.494033      -0.347303
                                                         0.988355      -0.110323
                                                         0.344978       0.154096
                                                         0.099466       0.058386
                          1       5    4py              10.077428      -0.112729
                                                         5.847736      -0.114008
                                                         2.494033      -0.347303
                                                         0.988355      -0.110323
                                                         0.344978       0.154096
                                                         0.099466       0.058386
                          1       5    4pz              10.077428      -0.112729
                                                         5.847736      -0.114008
                                                         2.494033      -0.347303
                                                         0.988355      -0.110323
                                                         0.344978       0.154096
                                                         0.099466       0.058386

                          1       6    4dx2             10.077428       8.232726
                                                         5.847736       9.105758
                                                         2.494033       2.849835
                                                         0.988355       0.554319
                                                         0.344978       0.067245
                                                         0.099466       0.001940
                          1       6    4dxy             10.077428      14.259500
                                                         5.847736      15.771636
                                                         2.494033       4.936060
                                                         0.988355       0.960109
                                                         0.344978       0.116472
                                                         0.099466       0.003360
                          1       6    4dxz             10.077428      14.259500
                                                         5.847736      15.771636
                                                         2.494033       4.936060
                                                         0.988355       0.960109
                                                         0.344978       0.116472
                                                         0.099466       0.003360
                          1       6    4dy2             10.077428       8.232726
                                                         5.847736       9.105758
                                                         2.494033       2.849835
                                                         0.988355       0.554319
                                                         0.344978       0.067245
                                                         0.099466       0.001940
                          1       6    4dyz             10.077428      14.259500
                                                         5.847736      15.771636
                                                         2.494033       4.936060
                                                         0.988355       0.960109
                                                         0.344978       0.116472
                                                         0.099466       0.003360
                          1       6    4dz2             10.077428       8.232726
                                                         5.847736       9.105758
                                                         2.494033       2.849835
                                                         0.988355       0.554319
                                                         0.344978       0.067245
                                                         0.099466       0.001940

                          1       7    5dx2             10.077428      -2.715373
                                                         5.847736      -4.020640
                                                         2.494033      -1.397569
                                                         0.988355      -0.076143
                                                         0.344978       0.033435
                                                         0.099466       0.026032
                          1       7    5dxy             10.077428      -4.703164
                                                         5.847736      -6.963952
                                                         2.494033      -2.420661
                                                         0.988355      -0.131883
                                                         0.344978       0.057911
                                                         0.099466       0.045088
                          1       7    5dxz             10.077428      -4.703164
                                                         5.847736      -6.963952
                                                         2.494033      -2.420661
                                                         0.988355      -0.131883
                                                         0.344978       0.057911
                                                         0.099466       0.045088
                          1       7    5dy2             10.077428      -2.715373
                                                         5.847736      -4.020640
                                                         2.494033      -1.397569
                                                         0.988355      -0.076143
                                                         0.344978       0.033435
                                                         0.099466       0.026032
                          1       7    5dyz             10.077428      -4.703164
                                                         5.847736      -6.963952
                                                         2.494033      -2.420661
                                                         0.988355      -0.131883
                                                         0.344978       0.057911
                                                         0.099466       0.045088
                          1       7    5dz2             10.077428      -2.715373
                                                         5.847736      -4.020640
                                                         2.494033      -1.397569
                                                         0.988355      -0.076143
                                                         0.344978       0.033435
                                                         0.099466       0.026032

                          1       8    5fx3             10.077428      -0.467694
                                                         5.847736       0.618100
                                                         2.494033       0.066069
                                                         0.988355       0.262898
                                                         0.344978       0.004720
                                                         0.099466       0.007748
                          1       8    5fx2y            10.077428      -1.045795
                                                         5.847736       1.382114
                                                         2.494033       0.147734
                                                         0.988355       0.587859
                                                         0.344978       0.010555
                                                         0.099466       0.017325
                          1       8    5fx2z            10.077428      -1.045795
                                                         5.847736       1.382114
                                                         2.494033       0.147734
                                                         0.988355       0.587859
                                                         0.344978       0.010555
                                                         0.099466       0.017325
                          1       8    5fxy2            10.077428      -1.045795
                                                         5.847736       1.382114
                                                         2.494033       0.147734
                                                         0.988355       0.587859
                                                         0.344978       0.010555
                                                         0.099466       0.017325
                          1       8    5fxyz            10.077428      -1.811371
                                                         5.847736       2.393892
                                                         2.494033       0.255883
                                                         0.988355       1.018201
                                                         0.344978       0.018282
                                                         0.099466       0.030008
                          1       8    5fxz2            10.077428      -1.045795
                                                         5.847736       1.382114
                                                         2.494033       0.147734
                                                         0.988355       0.587859
                                                         0.344978       0.010555
                                                         0.099466       0.017325
                          1       8    5fy3             10.077428      -0.467694
                                                         5.847736       0.618100
                                                         2.494033       0.066069
                                                         0.988355       0.262898
                                                         0.344978       0.004720
                                                         0.099466       0.007748
                          1       8    5fy2z            10.077428      -1.045795
                                                         5.847736       1.382114
                                                         2.494033       0.147734
                                                         0.988355       0.587859
                                                         0.344978       0.010555
                                                         0.099466       0.017325
                          1       8    5fyz2            10.077428      -1.045795
                                                         5.847736       1.382114
                                                         2.494033       0.147734
                                                         0.988355       0.587859
                                                         0.344978       0.010555
                                                         0.099466       0.017325
                          1       8    5fz3             10.077428      -0.467694
                                                         5.847736       0.618100
                                                         2.494033       0.066069
                                                         0.988355       0.262898
                                                         0.344978       0.004720
                                                         0.099466       0.007748

       Atomic covalent radius [Angstrom]:                                  1.150

       Atomic van der Waals radius [Angstrom]:                             1.630

     GTH Potential information for                                   GTH-PBE-q18

       Description:                       Goedecker-Teter-Hutter pseudopotential
                                           Goedecker et al., PRB 54, 1703 (1996)
                                          Hartwigsen et al., PRB 58, 3641 (1998)
                                                      Krack, TCA 114, 145 (2005)

       Gaussian exponent of the core charge distribution:               4.081633
       Electronic configuration (s p d ...):                           4   6   8

       Parameters of the local part of the GTH pseudopotential:

                          rloc        C1          C2          C3          C4
                        0.350000    2.102166    0.648484

       Parameters of the non-local part of the GTH pseudopotential:

                   l      r(l)      h(i,j,l)

                   0    0.261295    0.622658    9.970227
                                    9.970227  -12.871507
                   1    0.224253  -11.142708   12.429566
                                   12.429566  -14.706861
                   2    0.215348  -12.628146

  2. Atomic kind: Ni_b                                  Number of atoms:      16

     Orbital Basis Set                                        DZVP-MOLOPT-SR-GTH

       Number of orbital shell sets:                                           1
       Number of orbital shells:                                               8
       Number of primitive Cartesian functions:                                6
       Number of Cartesian basis functions:                                   31
       Number of spherical basis functions:                                   26
       Norm type:                                                              2

       Normalised Cartesian orbitals:

                        Set   Shell   Orbital            Exponent    Coefficient

                          1       1    2s               10.077428      -0.684558
                                                         5.847736      -0.844524
                                                         2.494033       1.088856
                                                         0.988355       0.395503
                                                         0.344978       0.010224
                                                         0.099466      -0.003250

                          1       2    3s               10.077428       0.096747
                                                         5.847736       0.162504
                                                         2.494033      -0.297192
                                                         0.988355      -0.319752
                                                         0.344978       0.088318
                                                         0.099466       0.118587

                          1       3    4s               10.077428       0.036437
                                                         5.847736      -0.381480
                                                         2.494033       0.003759
                                                         0.988355      -1.048256
                                                         0.344978       0.855825
                                                         0.099466      -0.176350

                          1       4    3px              10.077428      -3.133913
                                                         5.847736       3.027656
                                                         2.494033       2.353227
                                                         0.988355       0.554184
                                                         0.344978       0.019462
                                                         0.099466      -0.000291
                          1       4    3py              10.077428      -3.133913
                                                         5.847736       3.027656
                                                         2.494033       2.353227
                                                         0.988355       0.554184
                                                         0.344978       0.019462
                                                         0.099466      -0.000291
                          1       4    3pz              10.077428      -3.133913
                                                         5.847736       3.027656
                                                         2.494033       2.353227
                                                         0.988355       0.554184
                                                         0.344978       0.019462
                                                         0.099466      -0.000291

                          1       5    4px              10.077428      -0.112729
                                                         5.847736      -0.114008
                                                         2.494033      -0.347303
                                                         0.988355      -0.110323
                                                         0.344978       0.154096
                                                         0.099466       0.058386
                          1       5    4py              10.077428      -0.112729
                                                         5.847736      -0.114008
                                                         2.494033      -0.347303
                                                         0.988355      -0.110323
                                                         0.344978       0.154096
                                                         0.099466       0.058386
                          1       5    4pz              10.077428      -0.112729
                                                         5.847736      -0.114008
                                                         2.494033      -0.347303
                                                         0.988355      -0.110323
                                                         0.344978       0.154096
                                                         0.099466       0.058386

                          1       6    4dx2             10.077428       8.232726
                                                         5.847736       9.105758
                                                         2.494033       2.849835
                                                         0.988355       0.554319
                                                         0.344978       0.067245
                                                         0.099466       0.001940
                          1       6    4dxy             10.077428      14.259500
                                                         5.847736      15.771636
                                                         2.494033       4.936060
                                                         0.988355       0.960109
                                                         0.344978       0.116472
                                                         0.099466       0.003360
                          1       6    4dxz             10.077428      14.259500
                                                         5.847736      15.771636
                                                         2.494033       4.936060
                                                         0.988355       0.960109
                                                         0.344978       0.116472
                                                         0.099466       0.003360
                          1       6    4dy2             10.077428       8.232726
                                                         5.847736       9.105758
                                                         2.494033       2.849835
                                                         0.988355       0.554319
                                                         0.344978       0.067245
                                                         0.099466       0.001940
                          1       6    4dyz             10.077428      14.259500
                                                         5.847736      15.771636
                                                         2.494033       4.936060
                                                         0.988355       0.960109
                                                         0.344978       0.116472
                                                         0.099466       0.003360
                          1       6    4dz2             10.077428       8.232726
                                                         5.847736       9.105758
                                                         2.494033       2.849835
                                                         0.988355       0.554319
                                                         0.344978       0.067245
                                                         0.099466       0.001940

                          1       7    5dx2             10.077428      -2.715373
                                                         5.847736      -4.020640
                                                         2.494033      -1.397569
                                                         0.988355      -0.076143
                                                         0.344978       0.033435
                                                         0.099466       0.026032
                          1       7    5dxy             10.077428      -4.703164
                                                         5.847736      -6.963952
                                                         2.494033      -2.420661
                                                         0.988355      -0.131883
                                                         0.344978       0.057911
                                                         0.099466       0.045088
                          1       7    5dxz             10.077428      -4.703164
                                                         5.847736      -6.963952
                                                         2.494033      -2.420661
                                                         0.988355      -0.131883
                                                         0.344978       0.057911
                                                         0.099466       0.045088
                          1       7    5dy2             10.077428      -2.715373
                                                         5.847736      -4.020640
                                                         2.494033      -1.397569
                                                         0.988355      -0.076143
                                                         0.344978       0.033435
                                                         0.099466       0.026032
                          1       7    5dyz             10.077428      -4.703164
                                                         5.847736      -6.963952
                                                         2.494033      -2.420661
                                                         0.988355      -0.131883
                                                         0.344978       0.057911
                                                         0.099466       0.045088
                          1       7    5dz2             10.077428      -2.715373
                                                         5.847736      -4.020640
                                                         2.494033      -1.397569
                                                         0.988355      -0.076143
                                                         0.344978       0.033435
                                                         0.099466       0.026032

                          1       8    5fx3             10.077428      -0.467694
                                                         5.847736       0.618100
                                                         2.494033       0.066069
                                                         0.988355       0.262898
                                                         0.344978       0.004720
                                                         0.099466       0.007748
                          1       8    5fx2y            10.077428      -1.045795
                                                         5.847736       1.382114
                                                         2.494033       0.147734
                                                         0.988355       0.587859
                                                         0.344978       0.010555
                                                         0.099466       0.017325
                          1       8    5fx2z            10.077428      -1.045795
                                                         5.847736       1.382114
                                                         2.494033       0.147734
                                                         0.988355       0.587859
                                                         0.344978       0.010555
                                                         0.099466       0.017325
                          1       8    5fxy2            10.077428      -1.045795
                                                         5.847736       1.382114
                                                         2.494033       0.147734
                                                         0.988355       0.587859
                                                         0.344978       0.010555
                                                         0.099466       0.017325
                          1       8    5fxyz            10.077428      -1.811371
                                                         5.847736       2.393892
                                                         2.494033       0.255883
                                                         0.988355       1.018201
                                                         0.344978       0.018282
                                                         0.099466       0.030008
                          1       8    5fxz2            10.077428      -1.045795
                                                         5.847736       1.382114
                                                         2.494033       0.147734
                                                         0.988355       0.587859
                                                         0.344978       0.010555
                                                         0.099466       0.017325
                          1       8    5fy3             10.077428      -0.467694
                                                         5.847736       0.618100
                                                         2.494033       0.066069
                                                         0.988355       0.262898
                                                         0.344978       0.004720
                                                         0.099466       0.007748
                          1       8    5fy2z            10.077428      -1.045795
                                                         5.847736       1.382114
                                                         2.494033       0.147734
                                                         0.988355       0.587859
                                                         0.344978       0.010555
                                                         0.099466       0.017325
                          1       8    5fyz2            10.077428      -1.045795
                                                         5.847736       1.382114
                                                         2.494033       0.147734
                                                         0.988355       0.587859
                                                         0.344978       0.010555
                                                         0.099466       0.017325
                          1       8    5fz3             10.077428      -0.467694
                                                         5.847736       0.618100
                                                         2.494033       0.066069
                                                         0.988355       0.262898
                                                         0.344978       0.004720
                                                         0.099466       0.007748

       Atomic covalent radius [Angstrom]:                                  1.150

       Atomic van der Waals radius [Angstrom]:                             1.630

     GTH Potential information for                                   GTH-PBE-q18

       Description:                       Goedecker-Teter-Hutter pseudopotential
                                           Goedecker et al., PRB 54, 1703 (1996)
                                          Hartwigsen et al., PRB 58, 3641 (1998)
                                                      Krack, TCA 114, 145 (2005)

       Gaussian exponent of the core charge distribution:               4.081633
       Electronic configuration (s p d ...):                           4   6   8

       Parameters of the local part of the GTH pseudopotential:

                          rloc        C1          C2          C3          C4
                        0.350000    2.102166    0.648484

       Parameters of the non-local part of the GTH pseudopotential:

                   l      r(l)      h(i,j,l)

                   0    0.261295    0.622658    9.970227
                                    9.970227  -12.871507
                   1    0.224253  -11.142708   12.429566
                                   12.429566  -14.706861
                   2    0.215348  -12.628146


 MOLECULE KIND INFORMATION


 All atoms are their own molecule, skipping detailed information


 TOTAL NUMBERS AND MAXIMUM NUMBERS

  Total number of            - Atomic kinds:                                   2
                             - Atoms:                                         32
                             - Shell sets:                                    32
                             - Shells:                                       256
                             - Primitive Cartesian functions:                192
                             - Cartesian basis functions:                    992
                             - Spherical basis functions:                    832

  Maximum angular momentum of- Orbital basis functions:                        3
                             - Local part of the GTH pseudopotential:          2
                             - Non-local part of the GTH pseudopotential:      3


 MODULE QUICKSTEP: ATOMIC COORDINATES IN ANGSTROM

   Atom Kind Element         X             Y             Z       Z(eff)     Mass
      1    1 Ni   28      0.876298      0.876298      7.370500  18.0000  58.6934
      2    1 Ni   28      0.876298      4.382298      7.370500  18.0000  58.6934
      3    1 Ni   28      2.629298      2.629298      7.370500  18.0000  58.6934
      4    1 Ni   28      2.629298      6.135298      7.370500  18.0000  58.6934
      5    1 Ni   28      4.382298      0.876298      7.370500  18.0000  58.6934
      6    1 Ni   28      4.382298      4.382298      7.370500  18.0000  58.6934
      7    1 Ni   28      6.135298      2.629298      7.370500  18.0000  58.6934
      8    1 Ni   28      6.135298      6.135298      7.370500  18.0000  58.6934
      9    2 Ni   28      0.876298      2.629298      9.123500  18.0000  58.6934
     10    2 Ni   28      0.876298      6.135298      9.123500  18.0000  58.6934
     11    2 Ni   28      2.629298      0.876298      9.123500  18.0000  58.6934
     12    2 Ni   28      2.629298      4.382298      9.123500  18.0000  58.6934
     13    2 Ni   28      4.382298      2.629298      9.123500  18.0000  58.6934
     14    2 Ni   28      4.382298      6.135298      9.123500  18.0000  58.6934
     15    2 Ni   28      6.135298      0.876298      9.123500  18.0000  58.6934
     16    2 Ni   28      6.135298      4.382298      9.123500  18.0000  58.6934
     17    2 Ni   28      0.876298      0.876298     10.876500  18.0000  58.6934
     18    2 Ni   28      0.876298      4.382298     10.876500  18.0000  58.6934
     19    2 Ni   28      2.629298      2.629298     10.876500  18.0000  58.6934
     20    2 Ni   28      2.629298      6.135298     10.876500  18.0000  58.6934
     21    2 Ni   28      4.382298      0.876298     10.876500  18.0000  58.6934
     22    2 Ni   28      4.382298      4.382298     10.876500  18.0000  58.6934
     23    2 Ni   28      6.135298      2.629298     10.876500  18.0000  58.6934
     24    2 Ni   28      6.135298      6.135298     10.876500  18.0000  58.6934
     25    1 Ni   28      0.876298      2.629298     12.629500  18.0000  58.6934
     26    1 Ni   28      0.876298      6.135298     12.629500  18.0000  58.6934
     27    1 Ni   28      2.629298      0.876298     12.629500  18.0000  58.6934
     28    1 Ni   28      2.629298      4.382298     12.629500  18.0000  58.6934
     29    1 Ni   28      4.382298      2.629298     12.629500  18.0000  58.6934
     30    1 Ni   28      4.382298      6.135298     12.629500  18.0000  58.6934
     31    1 Ni   28      6.135298      0.876298     12.629500  18.0000  58.6934
     32    1 Ni   28      6.135298      4.382298     12.629500  18.0000  58.6934



 SCF PARAMETERS         Density guess:                                    ATOMIC
                        --------------------------------------------------------
                        max_scf:                                             500
                        max_scf_history:                                       0
                        max_diis:                                              4
                        --------------------------------------------------------
                        eps_scf:                                        5.00E-04
                        eps_scf_history:                                0.00E+00
                        eps_diis:                                       1.00E-01
                        eps_eigval:                                     1.00E-05
                        --------------------------------------------------------
                        level_shift [a.u.]:                             0.000000
                        added MOs                                       534  553
                        --------------------------------------------------------
                        Mixing method:                            BROYDEN_MIXING
                                                charge density mixing in g-space
                        --------------------------------------------------------
                        Smear method:                                FERMI_DIRAC
                        Electronic temperature [K]:                        700.0
                        Electronic temperature [a.u.]:                  2.22E-03
                        Accuracy threshold:                             1.00E-10
                        --------------------------------------------------------
                        No outer SCF

 PW_GRID| Information for grid number                                          1
 PW_GRID| Grid distributed over                                   128 processors
 PW_GRID| Real space group dimensions                                     8   16
 PW_GRID| the grid is blocked:                                               YES
 PW_GRID| Cutoff [a.u.]                                                    300.0
 PW_GRID| spherical cutoff:                                                   NO
 PW_GRID|   Bounds   1            -54      53                Points:         108
 PW_GRID|   Bounds   2            -54      53                Points:         108
 PW_GRID|   Bounds   3           -150     149                Points:         300
 PW_GRID| Volume element (a.u.^3)  0.1896E-02     Volume (a.u.^3)      6635.2971
 PW_GRID| Grid span                                                    FULLSPACE
 PW_GRID|   Distribution                         Average         Max         Min
 PW_GRID|   G-Vectors                            27337.5       28728       25272
 PW_GRID|   G-Rays                                 253.1         266         234
 PW_GRID|   Real Space Points                    27337.5       28728       25272

 PW_GRID| Information for grid number                                          2
 PW_GRID| Number of the reference grid                                         1
 PW_GRID| Grid distributed over                                   128 processors
 PW_GRID| Real space group dimensions                                     8   16
 PW_GRID| the grid is blocked:                                                NO
 PW_GRID| Cutoff [a.u.]                                                    100.0
 PW_GRID| spherical cutoff:                                                   NO
 PW_GRID|   Bounds   1            -30      29                Points:          60
 PW_GRID|   Bounds   2            -30      29                Points:          60
 PW_GRID|   Bounds   3            -90      89                Points:         180
 PW_GRID| Volume element (a.u.^3)  0.1024E-01     Volume (a.u.^3)      6635.2971
 PW_GRID| Grid span                                                    FULLSPACE
 PW_GRID|   Distribution                         Average         Max         Min
 PW_GRID|   G-Vectors                             5062.5       15960           0
 PW_GRID|   G-Rays                                  84.4         266           0
 PW_GRID|   Real Space Points                     5062.5        5760        3780

 PW_GRID| Information for grid number                                          3
 PW_GRID| Number of the reference grid                                         1
 PW_GRID| Grid distributed over                                   128 processors
 PW_GRID| Real space group dimensions                                     8   16
 PW_GRID| the grid is blocked:                                                NO
 PW_GRID| Cutoff [a.u.]                                                     33.3
 PW_GRID| spherical cutoff:                                                   NO
 PW_GRID|   Bounds   1            -18      17                Points:          36
 PW_GRID|   Bounds   2            -18      17                Points:          36
 PW_GRID|   Bounds   3            -50      49                Points:         100
 PW_GRID| Volume element (a.u.^3)  0.5120E-01     Volume (a.u.^3)      6635.2971
 PW_GRID| Grid span                                                    FULLSPACE
 PW_GRID|   Distribution                         Average         Max         Min
 PW_GRID|   G-Vectors                             1012.5        9576           0
 PW_GRID|   G-Rays                                  28.1         266           0
 PW_GRID|   Real Space Points                     1012.5        1500         800

 PW_GRID| Information for grid number                                          4
 PW_GRID| Number of the reference grid                                         1
 PW_GRID| Grid distributed over                                   128 processors
 PW_GRID| Real space group dimensions                                     8   16
 PW_GRID| the grid is blocked:                                                NO
 PW_GRID| Cutoff [a.u.]                                                     11.1
 PW_GRID| spherical cutoff:                                                   NO
 PW_GRID|   Bounds   1            -10       9                Points:          20
 PW_GRID|   Bounds   2            -10       9                Points:          20
 PW_GRID|   Bounds   3            -30      29                Points:          60
 PW_GRID| Volume element (a.u.^3)  0.2765         Volume (a.u.^3)      6635.2971
 PW_GRID| Grid span                                                    FULLSPACE
 PW_GRID|   Distribution                         Average         Max         Min
 PW_GRID|   G-Vectors                              187.5        3800           0
 PW_GRID|   G-Rays                                   9.4         190           0
 PW_GRID|   Real Space Points                      187.5         360         120

 PW_GRID| Information for grid number                                          5
 PW_GRID| Number of the reference grid                                         1
 PW_GRID| Grid distributed over                                   128 processors
 PW_GRID| Real space group dimensions                                     8   16
 PW_GRID| the grid is blocked:                                                NO
 PW_GRID| Cutoff [a.u.]                                                      3.7
 PW_GRID| spherical cutoff:                                                   NO
 PW_GRID|   Bounds   1             -6       5                Points:          12
 PW_GRID|   Bounds   2             -6       5                Points:          12
 PW_GRID|   Bounds   3            -18      17                Points:          36
 PW_GRID| Volume element (a.u.^3)   1.280         Volume (a.u.^3)      6635.2971
 PW_GRID| Grid span                                                    FULLSPACE
 PW_GRID|   Distribution                         Average         Max         Min
 PW_GRID|   G-Vectors                               40.5        1296           0
 PW_GRID|   G-Rays                                   3.4         108           0
 PW_GRID|   Real Space Points                       40.5          72           0

 POISSON| Solver                                                        PERIODIC
 POISSON| Periodicity                                                        XYZ

 RS_GRID| Information for grid number                                          1
 RS_GRID|   Bounds   1            -54      53                Points:         108
 RS_GRID|   Bounds   2            -54      53                Points:         108
 RS_GRID|   Bounds   3           -150     149                Points:         300
 RS_GRID| Real space distribution over                                  8 groups
 RS_GRID| Real space distribution along direction                              2
 RS_GRID| Border size                                                         28
 RS_GRID| Real space distribution over                                 16 groups
 RS_GRID| Real space distribution along direction                              3
 RS_GRID| Border size                                                         28
 RS_GRID|   Distribution                         Average         Max         Min
 RS_GRID|   Planes                                  69.5          70          69
 RS_GRID|   Distribution                         Average         Max         Min
 RS_GRID|   Planes                                  74.8          75          74

 RS_GRID| Information for grid number                                          2
 RS_GRID|   Bounds   1            -30      29                Points:          60
 RS_GRID|   Bounds   2            -30      29                Points:          60
 RS_GRID|   Bounds   3            -90      89                Points:         180
 RS_GRID| Real space fully replicated
 RS_GRID| Group size                                                           1

 RS_GRID| Information for grid number                                          3
 RS_GRID|   Bounds   1            -18      17                Points:          36
 RS_GRID|   Bounds   2            -18      17                Points:          36
 RS_GRID|   Bounds   3            -50      49                Points:         100
 RS_GRID| Real space fully replicated
 RS_GRID| Group size                                                           1

 RS_GRID| Information for grid number                                          4
 RS_GRID|   Bounds   1            -10       9                Points:          20
 RS_GRID|   Bounds   2            -10       9                Points:          20
 RS_GRID|   Bounds   3            -30      29                Points:          60
 RS_GRID| Real space fully replicated
 RS_GRID| Group size                                                           1

 RS_GRID| Information for grid number                                          5
 RS_GRID|   Bounds   1             -6       5                Points:          12
 RS_GRID|   Bounds   2             -6       5                Points:          12
 RS_GRID|   Bounds   3            -18      17                Points:          36
 RS_GRID| Real space fully replicated
 RS_GRID| Group size                                                           1

 Spin 1

 Number of electrons:                                                        297.600
 Number of occupied orbitals:                                                298
 Number of molecular orbitals:                                               832

 Spin 2

 Number of electrons:                                                        278.400
 Number of occupied orbitals:                                                279
 Number of molecular orbitals:                                               832

 Number of orbital functions:                                                832
 Number of independent orbital functions:                                    832

 Extrapolation method: initial_guess

 Atomic guess: The first density matrix is obtained in terms of atomic orbitals
               and electronic configurations assigned to each atomic kind

 Guess for atomic kind: Ni_i

 Electronic structure
    Total number of core electrons                                         10.00
    Total number of valence electrons                                      18.00
    Total number of electrons                                              28.00
    Multiplicity                                                         doublet
    Alpha Electrons
    S   [  1.00  1.00] 1.00  1.00
    P   [  3.00] 3.00
    D      4.35
    Beta Electrons
    S   [  1.00  1.00] 1.00  1.00
    P   [  3.00] 3.00
    D      3.65


 *******************************************************************************
                  Iteration          Convergence                     Energy [au]
 *******************************************************************************
                          1         1.51729                    -167.067424631347
                          2         15.3902                    -156.642654318634
                          3         2.33433                    -168.319355313541
                          4        0.206730                    -168.609905008081
                          5        0.814175E-01                -168.612873080494
                          6        0.173318E-01                -168.613470181066
                          7        0.290432E-02                -168.613543571401
                          8        0.311825E-02                -168.613543401474
                          9        0.179670E-03                -168.613544404477
                         10        0.169386E-02                -168.613544207811
                         11        0.473341E-03                -168.613544360253
                         12        0.165417E-03                -168.613544400419
                         13        0.162622E-03                -168.613544401489
                         14        0.158325E-03                -168.613544403900
                         15        0.177007E-03                -168.613544402509
                         16        0.138916E-03                -168.613544404900
                         17        0.934549E-04                -168.613544406149
                         18        0.119916E-03                -168.613544405789
                         19        0.131607E-03                -168.613544405591
                         20        0.169309E-03                -168.613544404773
                         21        0.551337E-04                -168.613544406656
                         22        0.382664E-04                -168.613544406759
                         23        0.378942E-04                -168.613544406765
                         24        0.381089E-04                -168.613544406765
                         25        0.390835E-04                -168.613544406759
                         26        0.308614E-04                -168.613544406841
                         27        0.205044E-04                -168.613544406892
                         28        0.200942E-04                -168.613544406893
                         29        0.199375E-04                -168.613544406893
                         30        0.200198E-04                -168.613544406894
                         31        0.161325E-04                -168.613544406903
                         32        0.330614E-05                -168.613544406925
                         33        0.238713E-05                -168.613544406926
                         34        0.265439E-05                -168.613544406926
                         35        0.277073E-05                -168.613544406926
                         36        0.335175E-05                -168.613544406926
                         37        0.148809E-05                -168.613544406927
                         38        0.133447E-05                -168.613544406927
                         39        0.918735E-06                -168.613544406927

 Energy components [Hartree]           Total Energy ::         -168.613544406927
                                        Band Energy ::          -26.569761966525
                                     Kinetic Energy ::           97.306723392622
                                   Potential Energy ::         -265.920267799548
                                      Virial (-V/T) ::            2.732804666812
                                        Core Energy ::         -299.567979157577
                                          XC Energy ::          -16.227189041387
                                     Coulomb Energy ::          147.181623792037
                       Total Pseudopotential Energy ::         -396.961043505191
                       Local Pseudopotential Energy ::         -362.648291121960
                    Nonlocal Pseudopotential Energy ::          -34.312752383230
                                        Confinement ::            0.863409549921

 Orbital energies  State     Spin  L     Occupation   Energy[a.u.]    Energy[eV]

                       1    alpha  0          1.000      -4.172666   -113.544030
                       2    alpha  0          1.000      -0.181431     -4.936983
                       1     beta  0          1.000      -4.140640   -112.672541
                       2     beta  0          1.000      -0.176372     -4.799339

                       1    alpha  1          3.000      -2.578739    -70.171064
                       1     beta  1          3.000      -2.547579    -69.323162

                       1    alpha  2          4.350      -0.327039     -8.899191
                       1     beta  2          3.650      -0.300569     -8.178887


 Total Electron Density at R=0:                                         0.030422

 Guess for atomic kind: Ni_b

 Electronic structure
    Total number of core electrons                                         10.00
    Total number of valence electrons                                      18.00
    Total number of electrons                                              28.00
    Multiplicity                                                         doublet
    Alpha Electrons
    S   [  1.00  1.00] 1.00  1.00
    P   [  3.00] 3.00
    D      4.25
    Beta Electrons
    S   [  1.00  1.00] 1.00  1.00
    P   [  3.00] 3.00
    D      3.75


 *******************************************************************************
                  Iteration          Convergence                     Energy [au]
 *******************************************************************************
                          1         1.51687                    -167.065012761055
                          2         14.9817                    -156.620431300845
                          3         2.25575                    -168.317311438693
                          4        0.189210                    -168.607926092750
                          5        0.708658E-01                -168.610773319290
                          6        0.122256E-01                -168.611238205502
                          7        0.598421E-02                -168.611272268995
                          8        0.528277E-02                -168.611272438110
                          9        0.104644E-02                -168.611275321653
                         10        0.260234E-02                -168.611274926630
                         11        0.975322E-03                -168.611275328217
                         12        0.161067E-03                -168.611275447773
                         13        0.147413E-03                -168.611275446839
                         14        0.115114E-03                -168.611275449434
                         15        0.167217E-03                -168.611275445436
                         16        0.255374E-04                -168.611275450531
                         17        0.418369E-04                -168.611275450414
                         18        0.393709E-04                -168.611275450477
                         19        0.239931E-04                -168.611275450542
                         20        0.173885E-04                -168.611275450557
                         21        0.851368E-05                -168.611275450578
                         22        0.849928E-05                -168.611275450580
                         23        0.544937E-05                -168.611275450584
                         24        0.540003E-05                -168.611275450586
                         25        0.613371E-05                -168.611275450584
                         26        0.311593E-06                -168.611275450588

 Energy components [Hartree]           Total Energy ::         -168.611275450588
                                        Band Energy ::          -26.568680144499
                                     Kinetic Energy ::           97.303659243130
                                   Potential Energy ::         -265.914934693718
                                      Virial (-V/T) ::            2.732835915546
                                        Core Energy ::         -299.566189183323
                                          XC Energy ::          -16.224592878785
                                     Coulomb Energy ::          147.179506611520
                       Total Pseudopotential Energy ::         -396.956189041778
                       Local Pseudopotential Energy ::         -362.645043136649
                    Nonlocal Pseudopotential Energy ::          -34.311145905129
                                        Confinement ::            0.863406153250

 Orbital energies  State     Spin  L     Occupation   Energy[a.u.]    Energy[eV]

                       1    alpha  0          1.000      -4.168335   -113.426177
                       2    alpha  0          1.000      -0.180730     -4.917906
                       1     beta  0          1.000      -4.145459   -112.803683
                       2     beta  0          1.000      -0.177117     -4.819606

                       1    alpha  1          3.000      -2.574525    -70.056390
                       1     beta  1          3.000      -2.552268    -69.450746

                       1    alpha  2          4.250      -0.323446     -8.801405
                       1     beta  2          3.750      -0.304537     -8.286881


 Total Electron Density at R=0:                                         0.030429

 Spin 1
 Re-scaling the density matrix to get the right number of electrons for spin 1
                  # Electrons              Trace(P)               Scaling factor
                        297.600             297.600                        1.000

 Spin 2
 Re-scaling the density matrix to get the right number of electrons for spin 2
                  # Electrons              Trace(P)               Scaling factor
                        278.400             278.400                        1.000


 SCF WAVEFUNCTION OPTIMIZATION

  Step     Update method      Time    Convergence         Total energy    Change
  ------------------------------------------------------------------------------
     1 NoMix/Diag. 0.80E-01    1.8     0.87424970     -5426.4441344177 -5.43E+03
     2 Broy./Diag. 0.80E-01    1.5     0.01478317     -5316.2355215718  1.10E+02
[...]
   123 Broy./Diag. 0.80E-01    1.5     0.03313803     -5416.9917977328  3.54E-01
   124 Broy./Diag. 0.80E-01    1.5     0.06879149     -5416.4667727210  5.25E-01
   125 Broy./Diag. 0.80E-01    1.5     0.02140069     -5416.6856059160 -2.19E-01
   126 Broy./Diag. 0.80E-01    1.5     0.04676764     -5416.5070584487  1.79E-01
   127 Broy./Diag. 0.80E-01    1.5     0.01238234     -5416.4281156400  7.89E-02
   128 Broy./Diag. 0.80E-01    1.5     0.02946905     -5416.7071622751 -2.79E-01
   129 Broy./Diag. 0.80E-01    1.5     0.20200374     -5417.5013335838 -7.94E-01
   130 Broy./Diag. 0.80E-01    1.5     0.20881041     -5416.6820939790  8.19E-01
   131 Broy./Diag. 0.80E-01    1.5     0.05693743     -5417.1297193433 -4.48E-01
   132 Broy./Diag. 0.80E-01    1.5     0.02062486     -5417.1128449066  1.69E-02
   133 Broy./Diag. 0.80E-01    1.5     0.03226452     -5417.2265786045 -1.14E-01
   134 Broy./Diag. 0.80E-01    1.5     0.08100550     -5417.1101873994  1.16E-01
   135 Broy./Diag. 0.80E-01    1.5     0.01761977     -5417.2348017616 -1.25E-01
   136 Broy./Diag. 0.80E-01    1.5     0.04980970     -5417.0804045303  1.54E-01
   137 Broy./Diag. 0.80E-01    1.5     0.04091741     -5417.0469760238  3.34E-02
   138 Broy./Diag. 0.80E-01    1.5     0.04313175     -5417.4257000365 -3.79E-01
   139 Broy./Diag. 0.80E-01    1.5     0.04997026     -5417.5364076528 -1.11E-01
   140 Broy./Diag. 0.80E-01    1.5     0.04737654     -5417.4060438744  1.30E-01
   141 Broy./Diag. 0.80E-01    1.5     0.01902646     -5417.6229240149 -2.17E-01
   142 Broy./Diag. 0.80E-01    1.5     0.06548900     -5417.5312976047  9.16E-02
   143 Broy./Diag. 0.80E-01    1.5     0.19409651     -5417.5038718868  2.74E-02
   144 Broy./Diag. 0.80E-01    1.5     0.06633659     -5417.8833191423 -3.79E-01
   145 Broy./Diag. 0.80E-01    1.5     0.07361086     -5418.0425340166 -1.59E-01
   146 Broy./Diag. 0.80E-01    1.5     0.06013782     -5417.7977464237  2.45E-01
   147 Broy./Diag. 0.80E-01    1.5     0.07450621     -5417.5970968490  2.01E-01
   148 Broy./Diag. 0.80E-01    1.5     0.02430047     -5414.9241371161  2.67E+00
   149 Broy./Diag. 0.80E-01    1.5     0.11109824     -5417.0459195355 -2.12E+00
   150 Broy./Diag. 0.80E-01    1.5     0.24137119     -5417.1884540521 -1.43E-01
   151 Broy./Diag. 0.80E-01    1.5     0.10263377     -5417.7280757399 -5.40E-01
   152 Broy./Diag. 0.80E-01    1.5     0.03980066     -5417.5192234511  2.09E-01
   153 Broy./Diag. 0.80E-01    1.5     0.06678378     -5417.8259609736 -3.07E-01
   154 Broy./Diag. 0.80E-01    1.5     0.02286928     -5417.3615667137  4.64E-01
   155 Broy./Diag. 0.80E-01    1.5     0.02377374     -5417.4077935484 -4.62E-02
   156 Broy./Diag. 0.80E-01    1.5     0.04075788     -5417.3736724896  3.41E-02
   157 Broy./Diag. 0.80E-01    1.5     0.04963847     -5417.2955688860  7.81E-02
   158 Broy./Diag. 0.80E-01    1.5     0.06749712     -5417.0431750115  2.52E-01
   159 Broy./Diag. 0.80E-01    1.5     0.07273387     -5416.0795555562  9.64E-01
   160 Broy./Diag. 0.80E-01    1.5     0.21568196     -5415.4001656983  6.79E-01
   161 Broy./Diag. 0.80E-01    1.5     0.00785196     -5417.5054533088 -2.11E+00
   162 Broy./Diag. 0.80E-01    1.5     0.03189833     -5417.0417126146  4.64E-01
   163 Broy./Diag. 0.80E-01    1.5     0.01834673     -5414.3625870980  2.68E+00
   164 Broy./Diag. 0.80E-01    1.5     0.01685223     -5413.3814913888  9.81E-01
   165 Broy./Diag. 0.80E-01    1.5     0.02007745     -5413.4021367459 -2.06E-02
   166 Broy./Diag. 0.80E-01    1.5     0.02304665     -5413.9445804227 -5.42E-01
   167 Broy./Diag. 0.80E-01    1.5     0.01516571     -5414.2172034764 -2.73E-01
   168 Broy./Diag. 0.80E-01    1.5     0.00145612     -5414.5453051190 -3.28E-01
   169 Broy./Diag. 0.80E-01    1.5     0.05427006     -5414.7238214736 -1.79E-01
   170 Broy./Diag. 0.80E-01    1.5     0.03698961     -5414.3275755608  3.96E-01
   171 Broy./Diag. 0.80E-01    1.5     0.09543856     -5412.7879301974  1.54E+00
   172 Broy./Diag. 0.80E-01    1.5     0.04967037     -5414.6074718100 -1.82E+00
   173 Broy./Diag. 0.80E-01    1.5     0.04372887     -5415.4386533470 -8.31E-01
   174 Broy./Diag. 0.80E-01    1.5     0.05203276     -5417.5854026144 -2.15E+00
   175 Broy./Diag. 0.80E-01    1.5     0.03650742     -5416.9418239189  6.44E-01
   176 Broy./Diag. 0.80E-01    1.5     0.01671413     -5417.6345192889 -6.93E-01
   177 Broy./Diag. 0.80E-01    1.5     0.03903561     -5418.9032211463 -1.27E+00
   178 Broy./Diag. 0.80E-01    1.5     0.05368313     -5417.4816746875  1.42E+00
   179 Broy./Diag. 0.80E-01    1.5     0.06373240     -5417.3780142169  1.04E-01
   180 Broy./Diag. 0.80E-01    1.5     0.02294992     -5416.9841921835  3.94E-01
   181 Broy./Diag. 0.80E-01    1.5     0.05027783     -5416.7083685173  2.76E-01
   182 Broy./Diag. 0.80E-01    1.5     0.01849630     -5415.8410750980  8.67E-01
   183 Broy./Diag. 0.80E-01    1.5     0.02620118     -5416.1771735833 -3.36E-01
   184 Broy./Diag. 0.80E-01    1.5     0.01935404     -5417.4464765945 -1.27E+00
   185 Broy./Diag. 0.80E-01    1.5     0.02390069     -5417.8196470241 -3.73E-01
   186 Broy./Diag. 0.80E-01    1.5     0.04141883     -5417.8327957474 -1.31E-02
   187 Broy./Diag. 0.80E-01    1.5     0.03665367     -5418.7737885298 -9.41E-01
   188 Broy./Diag. 0.80E-01    1.5     0.00862464     -5419.1777251678 -4.04E-01
   189 Broy./Diag. 0.80E-01    1.5     0.01709329     -5419.1795385705 -1.81E-03
   190 Broy./Diag. 0.80E-01    1.5     0.04671023     -5418.6962790543  4.83E-01
   191 Broy./Diag. 0.80E-01    1.5     0.04581003     -5418.5755598813  1.21E-01
   192 Broy./Diag. 0.80E-01    1.5     0.07674580     -5417.8499743741  7.26E-01
   193 Broy./Diag. 0.80E-01    1.5     0.01918627     -5417.9733824496 -1.23E-01
   194 Broy./Diag. 0.80E-01    1.5     0.02092823     -5417.5963125565  3.77E-01
   195 Broy./Diag. 0.80E-01    1.5     0.01357547     -5417.3772219380  2.19E-01
   196 Broy./Diag. 0.80E-01    1.5     0.04121280     -5418.9934185509 -1.62E+00
   197 Broy./Diag. 0.80E-01    1.5     0.05623118     -5419.4036930752 -4.10E-01
   198 Broy./Diag. 0.80E-01    1.5     0.01542810     -5420.3565335442 -9.53E-01
   199 Broy./Diag. 0.80E-01    1.5     0.02587101     -5419.3597468258  9.97E-01
   200 Broy./Diag. 0.80E-01    1.5     0.02884887     -5420.3863833661 -1.03E+00
   201 Broy./Diag. 0.80E-01    1.5     0.11476618     -5419.6513205028  7.35E-01
   202 Broy./Diag. 0.80E-01    1.5     0.05597957     -5414.8669642610  4.78E+00
   203 Broy./Diag. 0.80E-01    1.5     0.04076713     -5415.8285945539 -9.62E-01
   204 Broy./Diag. 0.80E-01    1.5     0.06666248     -5416.5713941949 -7.43E-01
   205 Broy./Diag. 0.80E-01    1.5     0.15079302     -5416.9048510596 -3.33E-01
   206 Broy./Diag. 0.80E-01    1.5     0.01045331     -5420.2953824475 -3.39E+00
   207 Broy./Diag. 0.80E-01    1.5     0.02736953     -5420.0992457832  1.96E-01
   208 Broy./Diag. 0.80E-01    1.5     0.03194951     -5418.5524136376  1.55E+00
   209 Broy./Diag. 0.80E-01    1.5     0.11299884     -5418.1910396883  3.61E-01
   210 Broy./Diag. 0.80E-01    1.5     0.01901202     -5418.3892204988 -1.98E-01
   211 Broy./Diag. 0.80E-01    1.5     0.02074365     -5418.5625797667 -1.73E-01
   212 Broy./Diag. 0.80E-01    1.5     0.03168536     -5418.6820494948 -1.19E-01
   213 Broy./Diag. 0.80E-01    1.5     0.10640227     -5418.4478521064  2.34E-01
   214 Broy./Diag. 0.80E-01    1.5     0.00789413     -5418.9334008703 -4.86E-01
   215 Broy./Diag. 0.80E-01    1.5     0.05119044     -5418.6210311785  3.12E-01
   216 Broy./Diag. 0.80E-01    1.5     0.02685370     -5417.9526710613  6.68E-01
   217 Broy./Diag. 0.80E-01    1.5     0.01822251     -5417.8434823215  1.09E-01
   218 Broy./Diag. 0.80E-01    1.5     0.05195152     -5418.3117827030 -4.68E-01
   219 Broy./Diag. 0.80E-01    1.5     0.11504430     -5418.5332800251 -2.21E-01
   220 Broy./Diag. 0.80E-01    1.5     0.01961928     -5417.6167755757  9.17E-01
   221 Broy./Diag. 0.80E-01    1.5     0.04733575     -5416.9728093643  6.44E-01
   222 Broy./Diag. 0.80E-01    1.5     0.03208149     -5416.7010611415  2.72E-01
   223 Broy./Diag. 0.80E-01    1.5     0.11808344     -5416.6708654673  3.02E-02
   224 Broy./Diag. 0.80E-01    1.6     0.09598265     -5418.3497867910 -1.68E+00
   225 Broy./Diag. 0.80E-01    1.5     0.05631766     -5417.7993762030  5.50E-01
   226 Broy./Diag. 0.80E-01    1.5     0.05372419     -5417.7958803263  3.50E-03
   227 Broy./Diag. 0.80E-01    1.5     0.04049361     -5417.5943519455  2.02E-01
   228 Broy./Diag. 0.80E-01    1.5     0.12268971     -5417.9922609059 -3.98E-01
   229 Broy./Diag. 0.80E-01    1.5     0.06560978     -5416.9204754888  1.07E+00
   230 Broy./Diag. 0.80E-01    1.5     0.07190444     -5416.1530690684  7.67E-01
   231 Broy./Diag. 0.80E-01    1.5     0.02015795     -5416.6425914371 -4.90E-01
   232 Broy./Diag. 0.80E-01    1.5     0.07929198     -5416.1167708378  5.26E-01
   233 Broy./Diag. 0.80E-01    1.5     0.02569972     -5416.0215135175  9.53E-02
   234 Broy./Diag. 0.80E-01    1.5     0.05765654     -5416.3328258234 -3.11E-01
   235 Broy./Diag. 0.80E-01    1.5     0.07768558     -5416.4994837132 -1.67E-01
   236 Broy./Diag. 0.80E-01    1.5     0.06565488     -5417.3290466805 -8.30E-01
   237 Broy./Diag. 0.80E-01    1.5     0.06340007     -5417.3525911473 -2.35E-02
   238 Broy./Diag. 0.80E-01    1.5     0.04010100     -5417.4291914479 -7.66E-02
   239 Broy./Diag. 0.80E-01    1.5     0.01378337     -5416.9471037694  4.82E-01
   240 Broy./Diag. 0.80E-01    1.5     0.08171472     -5418.0217966824 -1.07E+00
   241 Broy./Diag. 0.80E-01    1.5     0.02339129     -5418.5482736747 -5.26E-01
   242 Broy./Diag. 0.80E-01    1.5     0.10970367     -5418.1489252626  3.99E-01
   243 Broy./Diag. 0.80E-01    1.5     0.01255759     -5417.1516914249  9.97E-01
   244 Broy./Diag. 0.80E-01    1.5     0.08015461     -5417.3469154512 -1.95E-01
   245 Broy./Diag. 0.80E-01    1.5     0.05007887     -5417.7133283433 -3.66E-01
   246 Broy./Diag. 0.80E-01    1.5     0.05433617     -5416.8095852746  9.04E-01
   247 Broy./Diag. 0.80E-01    1.5     0.02311587     -5415.4050940010  1.40E+00
   248 Broy./Diag. 0.80E-01    1.5     0.02129198     -5416.6689406024 -1.26E+00
   249 Broy./Diag. 0.80E-01    1.5     0.03567904     -5416.1003213704  5.69E-01
   250 Broy./Diag. 0.80E-01    1.5     0.04785026     -5415.5649711175  5.35E-01
   251 Broy./Diag. 0.80E-01    1.5     0.01310820     -5415.5523571291  1.26E-02
   252 Broy./Diag. 0.80E-01    1.5     0.06571654     -5415.8861404591 -3.34E-01
   253 Broy./Diag. 0.80E-01    1.5     0.10542685     -5415.8611587518  2.50E-02
   254 Broy./Diag. 0.80E-01    1.5     0.12143937     -5415.8641975957 -3.04E-03
   255 Broy./Diag. 0.80E-01    1.5     0.03620217     -5416.2086149769 -3.44E-01
   256 Broy./Diag. 0.80E-01    1.5     0.03253765     -5417.5559762874 -1.35E+00
   257 Broy./Diag. 0.80E-01    1.5     0.14397645     -5416.9655030913  5.90E-01
   258 Broy./Diag. 0.80E-01    1.5     0.02510568     -5417.2707968610 -3.05E-01
   259 Broy./Diag. 0.80E-01    1.5     0.04070538     -5417.3339202395 -6.31E-02
   260 Broy./Diag. 0.80E-01    1.5     0.06981447     -5418.0295645156 -6.96E-01
   261 Broy./Diag. 0.80E-01    1.5     0.09213619     -5418.4413589241 -4.12E-01
   262 Broy./Diag. 0.80E-01    1.5     0.05429759     -5417.7120846397  7.29E-01
   263 Broy./Diag. 0.80E-01    1.5     0.07852897     -5417.5402166035  1.72E-01
   264 Broy./Diag. 0.80E-01    1.5     0.04997455     -5417.9850709738 -4.45E-01
   265 Broy./Diag. 0.80E-01    1.5     0.05691151     -5417.9210038093  6.41E-02
   266 Broy./Diag. 0.80E-01    1.5     0.01771567     -5417.6078393137  3.13E-01
   267 Broy./Diag. 0.80E-01    1.5     0.12142155     -5417.4624981065  1.45E-01
   268 Broy./Diag. 0.80E-01    1.5     0.02516430     -5417.6723366591 -2.10E-01
   269 Broy./Diag. 0.80E-01    1.5     0.02020511     -5417.6308855751  4.15E-02
   270 Broy./Diag. 0.80E-01    1.5     0.03492329     -5417.5001118681  1.31E-01
   271 Broy./Diag. 0.80E-01    1.5     0.02360555     -5417.1689624911  3.31E-01
   272 Broy./Diag. 0.80E-01    1.5     0.04192127     -5417.3028799432 -1.34E-01
   273 Broy./Diag. 0.80E-01    1.5     0.16352700     -5417.0804379925  2.22E-01
   274 Broy./Diag. 0.80E-01    1.5     0.04700722     -5418.1740827714 -1.09E+00
   275 Broy./Diag. 0.80E-01    1.5     0.02085742     -5417.8558572607  3.18E-01
   276 Broy./Diag. 0.80E-01    1.5     0.07505520     -5417.4717044166  3.84E-01
   277 Broy./Diag. 0.80E-01    1.5     0.06878919     -5417.9435081778 -4.72E-01
   278 Broy./Diag. 0.80E-01    1.5     0.04404637     -5417.8324391829  1.11E-01
   279 Broy./Diag. 0.80E-01    1.5     0.03457731     -5417.7167013116  1.16E-01
   280 Broy./Diag. 0.80E-01    1.5     0.01736516     -5417.7457379609 -2.90E-02
   281 Broy./Diag. 0.80E-01    1.5     0.03924634     -5417.7827839136 -3.70E-02
   282 Broy./Diag. 0.80E-01    1.5     0.03743404     -5417.8484327218 -6.56E-02
   283 Broy./Diag. 0.80E-01    1.5     0.16275415     -5417.7683210491  8.01E-02
   284 Broy./Diag. 0.80E-01    1.5     0.18097134     -5417.5674136928  2.01E-01
   285 Broy./Diag. 0.80E-01    1.5     0.04384016     -5415.7399330389  1.83E+00
   286 Broy./Diag. 0.80E-01    1.5     0.02973105     -5417.0851503046 -1.35E+00
   287 Broy./Diag. 0.80E-01    1.5     0.01932995     -5417.1626857184 -7.75E-02
   288 Broy./Diag. 0.80E-01    1.5     0.05457763     -5416.0365123431  1.13E+00
   289 Broy./Diag. 0.80E-01    1.5     0.02475102     -5416.4775623716 -4.41E-01
   290 Broy./Diag. 0.80E-01    1.5     0.04038530     -5416.7049324353 -2.27E-01
   291 Broy./Diag. 0.80E-01    1.5     0.02295150     -5417.4836799284 -7.79E-01
   292 Broy./Diag. 0.80E-01    1.5     0.05317188     -5417.4494133602  3.43E-02
   293 Broy./Diag. 0.80E-01    1.5     0.08292204     -5417.1926479734  2.57E-01
   294 Broy./Diag. 0.80E-01    1.5     0.05474823     -5417.3747990951 -1.82E-01
   295 Broy./Diag. 0.80E-01    1.5     0.02849262     -5416.7909866313  5.84E-01
   296 Broy./Diag. 0.80E-01    1.5     0.06632880     -5416.5968172976  1.94E-01
   297 Broy./Diag. 0.80E-01    1.5     0.05344814     -5415.5445014169  1.05E+00
   298 Broy./Diag. 0.80E-01    1.5     0.13068348     -5415.9148403981 -3.70E-01
   299 Broy./Diag. 0.80E-01    1.5     0.01668620     -5415.1882630043  7.27E-01
   300 Broy./Diag. 0.80E-01    1.5     0.08300698     -5415.1156727125  7.26E-02
   301 Broy./Diag. 0.80E-01    1.5     0.04195378     -5419.2788702956 -4.16E+00
   302 Broy./Diag. 0.80E-01    1.5     0.05840321     -5418.3539435228  9.25E-01
   303 Broy./Diag. 0.80E-01    1.5     0.11095245     -5419.2440456609 -8.90E-01
   304 Broy./Diag. 0.80E-01    1.5     0.13959628     -5418.2732215140  9.71E-01
   305 Broy./Diag. 0.80E-01    1.5     0.08276522     -5417.8934766440  3.80E-01
   306 Broy./Diag. 0.80E-01    1.5     0.15583897     -5418.8509829600 -9.58E-01
   307 Broy./Diag. 0.80E-01    1.5     0.03150081     -5415.3821214627  3.47E+00
   308 Broy./Diag. 0.80E-01    1.5     0.03242073     -5416.1133778460 -7.31E-01
   309 Broy./Diag. 0.80E-01    1.5     0.09670275     -5416.5280708548 -4.15E-01
   310 Broy./Diag. 0.80E-01    1.5     0.07423110     -5418.1646934998 -1.64E+00
   311 Broy./Diag. 0.80E-01    1.5     0.04025264     -5418.7190587073 -5.54E-01
   312 Broy./Diag. 0.80E-01    1.5     0.01903211     -5418.3146795334  4.04E-01
   313 Broy./Diag. 0.80E-01    1.5     0.01584719     -5418.2249942197  8.97E-02
   314 Broy./Diag. 0.80E-01    1.5     0.03721368     -5418.2493534031 -2.44E-02
   315 Broy./Diag. 0.80E-01    1.5     0.00775937     -5418.3672744900 -1.18E-01
   316 Broy./Diag. 0.80E-01    1.5     0.03005122     -5418.5233994900 -1.56E-01
   317 Broy./Diag. 0.80E-01    1.5     0.19767869     -5416.6529536988  1.87E+00
   318 Broy./Diag. 0.80E-01    1.5     0.05288260     -5414.0918326187  2.56E+00
   319 Broy./Diag. 0.80E-01    1.5     0.19376736     -5413.4743907921  6.17E-01
   320 Broy./Diag. 0.80E-01    1.5     0.23691541     -5406.9081900656  6.57E+00
   321 Broy./Diag. 0.80E-01    1.5     0.02778604     -5412.3232758759 -5.42E+00
   322 Broy./Diag. 0.80E-01    1.5     0.00882648     -5410.8813755006  1.44E+00
   323 Broy./Diag. 0.80E-01    1.5     0.10273095     -5411.4743960546 -5.93E-01
   324 Broy./Diag. 0.80E-01    1.5     0.15384172     -5409.1227509455  2.35E+00
   325 Broy./Diag. 0.80E-01    1.5     0.09647173     -5416.8280572867 -7.71E+00
   326 Broy./Diag. 0.80E-01    1.5     0.12351089     -5412.8753769326  3.95E+00
   327 Broy./Diag. 0.80E-01    1.5     0.07373252     -5419.1220287842 -6.25E+00
   328 Broy./Diag. 0.80E-01    1.5     0.13690859     -5419.7030321901 -5.81E-01
   329 Broy./Diag. 0.80E-01    1.5     0.17414270     -5416.2750310864  3.43E+00
   330 Broy./Diag. 0.80E-01    1.5     0.09649326     -5419.2577097311 -2.98E+00
   331 Broy./Diag. 0.80E-01    1.5     0.06629886     -5418.9689841756  2.89E-01
   332 Broy./Diag. 0.80E-01    1.5     0.07477860     -5417.3235333874  1.65E+00
   333 Broy./Diag. 0.80E-01    1.5     0.08957004     -5418.3750303786 -1.05E+00
   334 Broy./Diag. 0.80E-01    1.5     0.11150878     -5412.3694825867  6.01E+00
   335 Broy./Diag. 0.80E-01    1.5     0.27592928     -5418.3700268848 -6.00E+00
   336 Broy./Diag. 0.80E-01    1.5     0.11167204     -5418.1724399514  1.98E-01
   337 Broy./Diag. 0.80E-01    1.5     0.07843895     -5417.1069206462  1.07E+00
   338 Broy./Diag. 0.80E-01    1.5     0.10652919     -5417.5072808485 -4.00E-01
   339 Broy./Diag. 0.80E-01    1.5     0.23072418     -5416.1981864160  1.31E+00
   340 Broy./Diag. 0.80E-01    1.5     0.03882568     -5417.0751813988 -8.77E-01
   341 Broy./Diag. 0.80E-01    1.5     0.18937049     -5416.2801078473  7.95E-01
   342 Broy./Diag. 0.80E-01    1.5     0.05657599     -5407.2783777705  9.00E+00
   343 Broy./Diag. 0.80E-01    1.5     0.02360627     -5409.8005824709 -2.52E+00
   344 Broy./Diag. 0.80E-01    1.5     0.04184055     -5410.3367048963 -5.36E-01
   345 Broy./Diag. 0.80E-01    1.5     0.04043227     -5412.0834385124 -1.75E+00
   346 Broy./Diag. 0.80E-01    1.5     0.09773308     -5412.5613935805 -4.78E-01
   347 Broy./Diag. 0.80E-01    1.5     0.08740707     -5403.1502422921  9.41E+00
   348 Broy./Diag. 0.80E-01    1.5     0.19693386     -5400.5469380753  2.60E+00
   349 Broy./Diag. 0.80E-01    1.5     0.11035290     -5404.6385870052 -4.09E+00
   350 Broy./Diag. 0.80E-01    1.5     0.08507998     -5414.4375138620 -9.80E+00
   351 Broy./Diag. 0.80E-01    1.5     0.09299206     -5416.8374468395 -2.40E+00
   352 Broy./Diag. 0.80E-01    1.5     0.12521546     -5416.3931756143  4.44E-01
   353 Broy./Diag. 0.80E-01    1.5     0.25606299     -5417.0304601904 -6.37E-01
   354 Broy./Diag. 0.80E-01    1.5     0.17847053     -5412.4287391041  4.60E+00
   355 Broy./Diag. 0.80E-01    1.5     0.09930471     -5412.2268320208  2.02E-01
   356 Broy./Diag. 0.80E-01    1.5     0.18886680     -5411.3313105190  8.96E-01
   357 Broy./Diag. 0.80E-01    1.5     0.29779003     -5409.6756295543  1.66E+00
   358 Broy./Diag. 0.80E-01    1.5     0.21348411     -5408.4684673341  1.21E+00
   359 Broy./Diag. 0.80E-01    1.5     0.10313379     -5420.7983905067 -1.23E+01
   360 Broy./Diag. 0.80E-01    1.5     0.09009772     -5417.3877995009  3.41E+00
   361 Broy./Diag. 0.80E-01    1.5     0.09665455     -5412.1581157718  5.23E+00
   362 Broy./Diag. 0.80E-01    1.5     0.14821173     -5409.5347340318  2.62E+00
   363 Broy./Diag. 0.80E-01    1.5     0.11196539     -5419.4167756823 -9.88E+00
   364 Broy./Diag. 0.80E-01    1.5     0.06074160     -5411.9909330987  7.43E+00
   365 Broy./Diag. 0.80E-01    1.5     0.14218052     -5415.3031626785 -3.31E+00
   366 Broy./Diag. 0.80E-01    1.5     0.02266360     -5418.4852532962 -3.18E+00
   367 Broy./Diag. 0.80E-01    1.5     0.12050618     -5419.4628935364 -9.78E-01
   368 Broy./Diag. 0.80E-01    1.5     0.11908733     -5415.5350792718  3.93E+00
