 DBCSR| CPU Multiplication driver                                           XSMM (U)
 DBCSR| Multrec recursion limit                                              512 (U)
 DBCSR| Multiplication stack size                                           1000 (D)
 DBCSR| Maximum elements for images                                    UNLIMITED (U)
 DBCSR| Multiplicative factor virtual images                                   1 (U)
 DBCSR| Use multiplication densification                                       T (D)
 DBCSR| Multiplication size stacks                                             3 (U)
 DBCSR| Use memory pool for CPU allocation                                     F (U)
 DBCSR| Number of 3D layers                                               SINGLE (U)
 DBCSR| Use MPI memory allocation                                              F (U)
 DBCSR| Use RMA algorithm                                                      F (U)
 DBCSR| Use Communication thread                                               T (U)
 DBCSR| Communication thread load                                             87 (D)
 DBCSR| MPI: My process id                                                     0
 DBCSR| MPI: Number of processes                                             128
 DBCSR| OMP: Current number of threads                                         1
 DBCSR| OMP: Max number of threads                                             1
 DBCSR| Split modifier for TAS multiplication algorithm                  1.0E+00 (U)


  **** **** ******  **  PROGRAM STARTED AT               2023-02-15 10:06:45.084
 ***** ** ***  *** **   PROGRAM STARTED ON                             nid002240
 **    ****   ******    PROGRAM STARTED BY                                cahart
 ***** **    ** ** **   PROGRAM PROCESS ID                                 59375
  **** **  *******  **  PROGRAM STARTED IN /mnt/lustre/a2fs-work2/work/e05/e05/c
                                           ahart/postdoc/masters/ni/archer2/slab
                                           /optimise/magnetisation/scf_1e-3_temp
                                           -2000_mos-1000_alpha-0.08_beta-1.5_pe
                                           riodic-xyz/search/0.62_0.5

 CP2K| version string:                 CP2K version 2023.1 (Development Version)
 CP2K| source code revision number:                                  git:964cd58
 CP2K| cp2kflags: omp libint fftw3 libxc elpa parallel scalapack xsmm plumed2 mk
 CP2K|            l
 CP2K| is freely available from                            https://www.cp2k.org/
 CP2K| Program compiled at                          Mon 13 Feb 17:05:14 GMT 2023
 CP2K| Program compiled on                                                  ln01
 CP2K| Program compiled for                                              ARCHER2
 CP2K| Data directory path    /work/e05/e05/cahart/cp2k/cp2k-2023.1/cp2k-2023.1-
 CP2K| Input file name                                                  cp2k.inp

 GLOBAL| Force Environment number                                              1
 GLOBAL| Basis set file name                                        BASIS_MOLOPT
 GLOBAL| Potential file name                                      GTH_POTENTIALS
 GLOBAL| MM Potential file name                                     MM_POTENTIAL
 GLOBAL| Coordinate file name                                      __STD_INPUT__
 GLOBAL| Method name                                                        CP2K
 GLOBAL| Project name                                                    Ni_bulk
 GLOBAL| Run type                                                         ENERGY
 GLOBAL| FFT library                                                       FFTW3
 GLOBAL| Diagonalization library                                            ELPA
 GLOBAL| DGEMM library                                                      BLAS
 GLOBAL| Minimum number of eigenvectors for ELPA usage                        16
 GLOBAL| Orthonormality check for eigenvectors                          DISABLED
 GLOBAL| Matrix multiplication library                                 ScaLAPACK
 GLOBAL| All-to-all communication in single precision                          F
 GLOBAL| FFTs using library dependent lengths                                  F
 GLOBAL| Grid backend                                                       AUTO
 GLOBAL| Global print level                                               MEDIUM
 GLOBAL| MPI I/O enabled                                                       T
 GLOBAL| Total number of message passing processes                           128
 GLOBAL| Number of threads for this process                                    1
 GLOBAL| This output is from process                                           0
 GLOBAL| Stack size for threads created by OpenMP (OMP_STACKSIZE)        default
 GLOBAL| CPU model name                          AMD EPYC 7742 64-Core Processor
 GLOBAL| CPUID                                                              1002

 MEMORY| system memory details [Kb]
 MEMORY|                        rank 0           min           max       average
 MEMORY| MemTotal            263528084     263528084     263528084     263528084
 MEMORY| MemFree             239244488     239241496     239244488     239241519
 MEMORY| Buffers                 32088         32088         32088         32088
 MEMORY| Cached                 611964        611932        611964        611932
 MEMORY| Slab                  1543120       1543112       1543120       1543112
 MEMORY| SReclaimable           110220        110220        110220        110220
 MEMORY| MemLikelyFree       239998760     239995736     239998760     239995759


 *** Fundamental physical constants (SI units) ***

 *** Literature: B. J. Mohr and B. N. Taylor,
 ***             CODATA recommended values of the fundamental physical
 ***             constants: 2006, Web Version 5.1
 ***             http://physics.nist.gov/constants

 Speed of light in vacuum [m/s]                             2.99792458000000E+08
 Magnetic constant or permeability of vacuum [N/A**2]       1.25663706143592E-06
 Electric constant or permittivity of vacuum [F/m]          8.85418781762039E-12
 Planck constant (h) [J*s]                                  6.62606896000000E-34
 Planck constant (h-bar) [J*s]                              1.05457162825177E-34
 Elementary charge [C]                                      1.60217648700000E-19
 Electron mass [kg]                                         9.10938215000000E-31
 Electron g factor [ ]                                     -2.00231930436220E+00
 Proton mass [kg]                                           1.67262163700000E-27
 Fine-structure constant                                    7.29735253760000E-03
 Rydberg constant [1/m]                                     1.09737315685270E+07
 Avogadro constant [1/mol]                                  6.02214179000000E+23
 Boltzmann constant [J/K]                                   1.38065040000000E-23
 Atomic mass unit [kg]                                      1.66053878200000E-27
 Bohr radius [m]                                            5.29177208590000E-11

 *** Conversion factors ***

 [u] -> [a.u.]                                              1.82288848426455E+03
 [Angstrom] -> [Bohr] = [a.u.]                              1.88972613288564E+00
 [a.u.] = [Bohr] -> [Angstrom]                              5.29177208590000E-01
 [a.u.] -> [s]                                              2.41888432650478E-17
 [a.u.] -> [fs]                                             2.41888432650478E-02
 [a.u.] -> [J]                                              4.35974393937059E-18
 [a.u.] -> [N]                                              8.23872205491840E-08
 [a.u.] -> [K]                                              3.15774647902944E+05
 [a.u.] -> [kJ/mol]                                         2.62549961709828E+03
 [a.u.] -> [kcal/mol]                                       6.27509468713739E+02
 [a.u.] -> [Pa]                                             2.94210107994716E+13
 [a.u.] -> [bar]                                            2.94210107994716E+08
 [a.u.] -> [atm]                                            2.90362800883016E+08
 [a.u.] -> [eV]                                             2.72113838565563E+01
 [a.u.] -> [Hz]                                             6.57968392072181E+15
 [a.u.] -> [1/cm] (wave numbers)                            2.19474631370540E+05
 [a.u./Bohr**2] -> [1/cm]                                   5.14048714338585E+03
 

 CELL_TOP| Volume [angstrom^3]:                                       983.249569
 CELL_TOP| Vector a [angstrom     7.012     0.000     0.000   |a| =     7.011596
 CELL_TOP| Vector b [angstrom     0.000     7.012     0.000   |b| =     7.011596
 CELL_TOP| Vector c [angstrom     0.000     0.000    20.000   |c| =    20.000000
 CELL_TOP| Angle (b,c), alpha [degree]:                                90.000000
 CELL_TOP| Angle (a,c), beta  [degree]:                                90.000000
 CELL_TOP| Angle (a,b), gamma [degree]:                                90.000000
 CELL_TOP| Numerically orthorhombic:                                         YES
 CELL_TOP| Periodicity                                                       XYZ

 GENERATE|  Preliminary Number of Bonds generated:                             0
 GENERATE|  Achieved consistency in connectivity generation.

 CELL| Volume [angstrom^3]:                                           983.249569
 CELL| Vector a [angstrom]:       7.012     0.000     0.000   |a| =     7.011596
 CELL| Vector b [angstrom]:       0.000     7.012     0.000   |b| =     7.011596
 CELL| Vector c [angstrom]:       0.000     0.000    20.000   |c| =    20.000000
 CELL| Angle (b,c), alpha [degree]:                                    90.000000
 CELL| Angle (a,c), beta  [degree]:                                    90.000000
 CELL| Angle (a,b), gamma [degree]:                                    90.000000
 CELL| Numerically orthorhombic:                                             YES
 CELL| Periodicity                                                           XYZ

 CELL_REF| Volume [angstrom^3]:                                       983.249569
 CELL_REF| Vector a [angstrom     7.012     0.000     0.000   |a| =     7.011596
 CELL_REF| Vector b [angstrom     0.000     7.012     0.000   |b| =     7.011596
 CELL_REF| Vector c [angstrom     0.000     0.000    20.000   |c| =    20.000000
 CELL_REF| Angle (b,c), alpha [degree]:                                90.000000
 CELL_REF| Angle (a,c), beta  [degree]:                                90.000000
 CELL_REF| Angle (a,b), gamma [degree]:                                90.000000
 CELL_REF| Numerically orthorhombic:                                         YES
 CELL_REF| Periodicity                                                       XYZ

 *** WARNING in cryssym.F:165 :: Symmetry library SPGLIB not available ***


 *******************************************************************************
                                    Kpoints
 *******************************************************************************
 BRILLOUIN| K-point scheme                                        Monkhorst-Pack
 BRILLOUIN| K-Point grid                                             4    4    1
 BRILLOUIN| Accuracy in Symmetry determination                      0.100000E-05
 BRILLOUIN| K-Point point group symmetrization                               OFF
 BRILLOUIN| Wavefunction type                                            COMPLEX
 BRILLOUIN| List of Kpoints [2 Pi/Bohr]                                        8
 BRILLOUIN| Number           Weight            X              Y              Z
 BRILLOUIN|     1           0.12500       -0.37500       -0.37500        0.00000
 BRILLOUIN|     2           0.12500       -0.37500       -0.12500        0.00000
 BRILLOUIN|     3           0.12500       -0.37500        0.12500        0.00000
 BRILLOUIN|     4           0.12500       -0.37500        0.37500        0.00000
 BRILLOUIN|     5           0.12500       -0.12500       -0.37500        0.00000
 BRILLOUIN|     6           0.12500       -0.12500       -0.12500        0.00000
 BRILLOUIN|     7           0.12500       -0.12500        0.12500        0.00000
 BRILLOUIN|     8           0.12500       -0.12500        0.37500        0.00000
 *******************************************************************************

 *******************************************************************************
 *******************************************************************************
 **                                                                           **
 **     #####                         ##              ##                      **
 **    ##   ##            ##          ##              ##                      **
 **   ##     ##                       ##            ######                    **
 **   ##     ##  ##   ##  ##   #####  ##  ##   ####   ##    #####    #####    **
 **   ##     ##  ##   ##  ##  ##      ## ##   ##      ##   ##   ##  ##   ##   **
 **   ##  ## ##  ##   ##  ##  ##      ####     ###    ##   ######   ######    **
 **    ##  ###   ##   ##  ##  ##      ## ##      ##   ##   ##       ##        **
 **     #######   #####   ##   #####  ##  ##  ####    ##    #####   ##        **
 **           ##                                                    ##        **
 **                                                                           **
 **                                                ... make the atoms dance   **
 **                                                                           **
 **            Copyright (C) by CP2K developers group (2000-2023)             **
 **                      J. Chem. Phys. 152, 194103 (2020)                    **
 **                                                                           **
 *******************************************************************************

 *** WARNING in qs_environment.F:1456 :: Number of electrons will be ***
 *** overwritten by NELEC_ALPHA and NELEC_BETA, multiplicity will be ***
 *** ignored.                                                        ***

 Number of electrons should be                                               576
 Sum of NELEC_ALPHA and NELEC_BETA is                                    576.000

 *** WARNING in qs_environment.F:1488 :: NELEC_ALPHA is not an integer, ***
 *** many features will not be supported.                               ***


 *** WARNING in qs_environment.F:1500 :: NELEC_BETA is not an integer, ***
 *** many features will not be supported.                              ***


 *** WARNING in qs_environment.F:1532 :: More ADDED_MOs requested for beta ***
 *** spin than available.                                                  ***


 *** WARNING in qs_environment.F:1548 :: More added MOs requested than     ***
 *** available. The full set of unoccupied MOs will be used. Use           ***
 *** 'ADDED_MOS -1' to always use all available MOs and to get rid of this ***
 *** warning.                                                              ***


 DFT| Spin unrestricted (spin-polarized) Kohn-Sham calculation               UKS
 DFT| Multiplicity                                                             1
 DFT| Number of spin states                                                    2
 DFT| Charge                                                                   0
 DFT| Self-interaction correction (SIC)                                       NO
 DFT| Cutoffs: density                                              1.000000E-10
 DFT|          gradient                                             1.000000E-10
 DFT|          tau                                                  1.000000E-10
 DFT|          cutoff_smoothing_range                               0.000000E+00
 DFT| XC density smoothing                                                  NONE
 DFT| XC derivatives                                                          PW

 FUNCTIONAL| PBE:
 FUNCTIONAL| J.P.Perdew, K.Burke, M.Ernzerhof, Phys. Rev. Letter, vol. 77, n 18,
 FUNCTIONAL|  pp. 3865-3868, (1996){spin polarized}                             

 vdW POTENTIAL|                                                   Pair Potential
 vdW POTENTIAL|          DFT-D3 (Version 3.1)
 vdW POTENTIAL|          Potential Form: S. Grimme et al, JCP 132: 154104 (2010)
 vdW POTENTIAL|          Zero Damping
 vdW POTENTIAL|          Cutoff Radius [Bohr]:                             20.00
 vdW POTENTIAL|          s6 Scaling Factor:                               1.0000
 vdW POTENTIAL|          sr6 Scaling Factor:                              1.2170
 vdW POTENTIAL|          s8 Scaling Factor:                               0.7220
 vdW POTENTIAL|          Cutoff for CN calculation:                   0.1000E-05

 QS| Method:                                                                 GPW
 QS| Density plane wave grid type                        NON-SPHERICAL FULLSPACE
 QS| Number of grid levels:                                                    5
 QS| Density cutoff [a.u.]:                                                300.0
 QS| Multi grid cutoff [a.u.]: 1) grid level                               300.0
 QS|                           2) grid level                               100.0
 QS|                           3) grid level                                33.3
 QS|                           4) grid level                                11.1
 QS|                           5) grid level                                 3.7
 QS| Grid level progression factor:                                          3.0
 QS| Relative density cutoff [a.u.]:                                        30.0
 QS| Interaction thresholds: eps_pgf_orb:                                1.0E-06
 QS|                         eps_filter_matrix:                          0.0E+00
 QS|                         eps_core_charge:                            1.0E-14
 QS|                         eps_rho_gspace:                             1.0E-12
 QS|                         eps_rho_rspace:                             1.0E-12
 QS|                         eps_gvg_rspace:                             1.0E-06
 QS|                         eps_ppl:                                    1.0E-02
 QS|                         eps_ppnl:                                   1.0E-08


 ATOMIC KIND INFORMATION

  1. Atomic kind: Ni_i                                  Number of atoms:      16

     Orbital Basis Set                                        DZVP-MOLOPT-SR-GTH

       Number of orbital shell sets:                                           1
       Number of orbital shells:                                               8
       Number of primitive Cartesian functions:                                6
       Number of Cartesian basis functions:                                   31
       Number of spherical basis functions:                                   26
       Norm type:                                                              2

       Normalised Cartesian orbitals:

                        Set   Shell   Orbital            Exponent    Coefficient

                          1       1    2s               10.077428      -0.684558
                                                         5.847736      -0.844524
                                                         2.494033       1.088856
                                                         0.988355       0.395503
                                                         0.344978       0.010224
                                                         0.099466      -0.003250

                          1       2    3s               10.077428       0.096747
                                                         5.847736       0.162504
                                                         2.494033      -0.297192
                                                         0.988355      -0.319752
                                                         0.344978       0.088318
                                                         0.099466       0.118587

                          1       3    4s               10.077428       0.036437
                                                         5.847736      -0.381480
                                                         2.494033       0.003759
                                                         0.988355      -1.048256
                                                         0.344978       0.855825
                                                         0.099466      -0.176350

                          1       4    3px              10.077428      -3.133913
                                                         5.847736       3.027656
                                                         2.494033       2.353227
                                                         0.988355       0.554184
                                                         0.344978       0.019462
                                                         0.099466      -0.000291
                          1       4    3py              10.077428      -3.133913
                                                         5.847736       3.027656
                                                         2.494033       2.353227
                                                         0.988355       0.554184
                                                         0.344978       0.019462
                                                         0.099466      -0.000291
                          1       4    3pz              10.077428      -3.133913
                                                         5.847736       3.027656
                                                         2.494033       2.353227
                                                         0.988355       0.554184
                                                         0.344978       0.019462
                                                         0.099466      -0.000291

                          1       5    4px              10.077428      -0.112729
                                                         5.847736      -0.114008
                                                         2.494033      -0.347303
                                                         0.988355      -0.110323
                                                         0.344978       0.154096
                                                         0.099466       0.058386
                          1       5    4py              10.077428      -0.112729
                                                         5.847736      -0.114008
                                                         2.494033      -0.347303
                                                         0.988355      -0.110323
                                                         0.344978       0.154096
                                                         0.099466       0.058386
                          1       5    4pz              10.077428      -0.112729
                                                         5.847736      -0.114008
                                                         2.494033      -0.347303
                                                         0.988355      -0.110323
                                                         0.344978       0.154096
                                                         0.099466       0.058386

                          1       6    4dx2             10.077428       8.232726
                                                         5.847736       9.105758
                                                         2.494033       2.849835
                                                         0.988355       0.554319
                                                         0.344978       0.067245
                                                         0.099466       0.001940
                          1       6    4dxy             10.077428      14.259500
                                                         5.847736      15.771636
                                                         2.494033       4.936060
                                                         0.988355       0.960109
                                                         0.344978       0.116472
                                                         0.099466       0.003360
                          1       6    4dxz             10.077428      14.259500
                                                         5.847736      15.771636
                                                         2.494033       4.936060
                                                         0.988355       0.960109
                                                         0.344978       0.116472
                                                         0.099466       0.003360
                          1       6    4dy2             10.077428       8.232726
                                                         5.847736       9.105758
                                                         2.494033       2.849835
                                                         0.988355       0.554319
                                                         0.344978       0.067245
                                                         0.099466       0.001940
                          1       6    4dyz             10.077428      14.259500
                                                         5.847736      15.771636
                                                         2.494033       4.936060
                                                         0.988355       0.960109
                                                         0.344978       0.116472
                                                         0.099466       0.003360
                          1       6    4dz2             10.077428       8.232726
                                                         5.847736       9.105758
                                                         2.494033       2.849835
                                                         0.988355       0.554319
                                                         0.344978       0.067245
                                                         0.099466       0.001940

                          1       7    5dx2             10.077428      -2.715373
                                                         5.847736      -4.020640
                                                         2.494033      -1.397569
                                                         0.988355      -0.076143
                                                         0.344978       0.033435
                                                         0.099466       0.026032
                          1       7    5dxy             10.077428      -4.703164
                                                         5.847736      -6.963952
                                                         2.494033      -2.420661
                                                         0.988355      -0.131883
                                                         0.344978       0.057911
                                                         0.099466       0.045088
                          1       7    5dxz             10.077428      -4.703164
                                                         5.847736      -6.963952
                                                         2.494033      -2.420661
                                                         0.988355      -0.131883
                                                         0.344978       0.057911
                                                         0.099466       0.045088
                          1       7    5dy2             10.077428      -2.715373
                                                         5.847736      -4.020640
                                                         2.494033      -1.397569
                                                         0.988355      -0.076143
                                                         0.344978       0.033435
                                                         0.099466       0.026032
                          1       7    5dyz             10.077428      -4.703164
                                                         5.847736      -6.963952
                                                         2.494033      -2.420661
                                                         0.988355      -0.131883
                                                         0.344978       0.057911
                                                         0.099466       0.045088
                          1       7    5dz2             10.077428      -2.715373
                                                         5.847736      -4.020640
                                                         2.494033      -1.397569
                                                         0.988355      -0.076143
                                                         0.344978       0.033435
                                                         0.099466       0.026032

                          1       8    5fx3             10.077428      -0.467694
                                                         5.847736       0.618100
                                                         2.494033       0.066069
                                                         0.988355       0.262898
                                                         0.344978       0.004720
                                                         0.099466       0.007748
                          1       8    5fx2y            10.077428      -1.045795
                                                         5.847736       1.382114
                                                         2.494033       0.147734
                                                         0.988355       0.587859
                                                         0.344978       0.010555
                                                         0.099466       0.017325
                          1       8    5fx2z            10.077428      -1.045795
                                                         5.847736       1.382114
                                                         2.494033       0.147734
                                                         0.988355       0.587859
                                                         0.344978       0.010555
                                                         0.099466       0.017325
                          1       8    5fxy2            10.077428      -1.045795
                                                         5.847736       1.382114
                                                         2.494033       0.147734
                                                         0.988355       0.587859
                                                         0.344978       0.010555
                                                         0.099466       0.017325
                          1       8    5fxyz            10.077428      -1.811371
                                                         5.847736       2.393892
                                                         2.494033       0.255883
                                                         0.988355       1.018201
                                                         0.344978       0.018282
                                                         0.099466       0.030008
                          1       8    5fxz2            10.077428      -1.045795
                                                         5.847736       1.382114
                                                         2.494033       0.147734
                                                         0.988355       0.587859
                                                         0.344978       0.010555
                                                         0.099466       0.017325
                          1       8    5fy3             10.077428      -0.467694
                                                         5.847736       0.618100
                                                         2.494033       0.066069
                                                         0.988355       0.262898
                                                         0.344978       0.004720
                                                         0.099466       0.007748
                          1       8    5fy2z            10.077428      -1.045795
                                                         5.847736       1.382114
                                                         2.494033       0.147734
                                                         0.988355       0.587859
                                                         0.344978       0.010555
                                                         0.099466       0.017325
                          1       8    5fyz2            10.077428      -1.045795
                                                         5.847736       1.382114
                                                         2.494033       0.147734
                                                         0.988355       0.587859
                                                         0.344978       0.010555
                                                         0.099466       0.017325
                          1       8    5fz3             10.077428      -0.467694
                                                         5.847736       0.618100
                                                         2.494033       0.066069
                                                         0.988355       0.262898
                                                         0.344978       0.004720
                                                         0.099466       0.007748

       Atomic covalent radius [Angstrom]:                                  1.150

       Atomic van der Waals radius [Angstrom]:                             1.630

     GTH Potential information for                                   GTH-PBE-q18

       Description:                       Goedecker-Teter-Hutter pseudopotential
                                           Goedecker et al., PRB 54, 1703 (1996)
                                          Hartwigsen et al., PRB 58, 3641 (1998)
                                                      Krack, TCA 114, 145 (2005)

       Gaussian exponent of the core charge distribution:               4.081633
       Electronic configuration (s p d ...):                           4   6   8

       Parameters of the local part of the GTH pseudopotential:

                          rloc        C1          C2          C3          C4
                        0.350000    2.102166    0.648484

       Parameters of the non-local part of the GTH pseudopotential:

                   l      r(l)      h(i,j,l)

                   0    0.261295    0.622658    9.970227
                                    9.970227  -12.871507
                   1    0.224253  -11.142708   12.429566
                                   12.429566  -14.706861
                   2    0.215348  -12.628146

  2. Atomic kind: Ni_b                                  Number of atoms:      16

     Orbital Basis Set                                        DZVP-MOLOPT-SR-GTH

       Number of orbital shell sets:                                           1
       Number of orbital shells:                                               8
       Number of primitive Cartesian functions:                                6
       Number of Cartesian basis functions:                                   31
       Number of spherical basis functions:                                   26
       Norm type:                                                              2

       Normalised Cartesian orbitals:

                        Set   Shell   Orbital            Exponent    Coefficient

                          1       1    2s               10.077428      -0.684558
                                                         5.847736      -0.844524
                                                         2.494033       1.088856
                                                         0.988355       0.395503
                                                         0.344978       0.010224
                                                         0.099466      -0.003250

                          1       2    3s               10.077428       0.096747
                                                         5.847736       0.162504
                                                         2.494033      -0.297192
                                                         0.988355      -0.319752
                                                         0.344978       0.088318
                                                         0.099466       0.118587

                          1       3    4s               10.077428       0.036437
                                                         5.847736      -0.381480
                                                         2.494033       0.003759
                                                         0.988355      -1.048256
                                                         0.344978       0.855825
                                                         0.099466      -0.176350

                          1       4    3px              10.077428      -3.133913
                                                         5.847736       3.027656
                                                         2.494033       2.353227
                                                         0.988355       0.554184
                                                         0.344978       0.019462
                                                         0.099466      -0.000291
                          1       4    3py              10.077428      -3.133913
                                                         5.847736       3.027656
                                                         2.494033       2.353227
                                                         0.988355       0.554184
                                                         0.344978       0.019462
                                                         0.099466      -0.000291
                          1       4    3pz              10.077428      -3.133913
                                                         5.847736       3.027656
                                                         2.494033       2.353227
                                                         0.988355       0.554184
                                                         0.344978       0.019462
                                                         0.099466      -0.000291

                          1       5    4px              10.077428      -0.112729
                                                         5.847736      -0.114008
                                                         2.494033      -0.347303
                                                         0.988355      -0.110323
                                                         0.344978       0.154096
                                                         0.099466       0.058386
                          1       5    4py              10.077428      -0.112729
                                                         5.847736      -0.114008
                                                         2.494033      -0.347303
                                                         0.988355      -0.110323
                                                         0.344978       0.154096
                                                         0.099466       0.058386
                          1       5    4pz              10.077428      -0.112729
                                                         5.847736      -0.114008
                                                         2.494033      -0.347303
                                                         0.988355      -0.110323
                                                         0.344978       0.154096
                                                         0.099466       0.058386

                          1       6    4dx2             10.077428       8.232726
                                                         5.847736       9.105758
                                                         2.494033       2.849835
                                                         0.988355       0.554319
                                                         0.344978       0.067245
                                                         0.099466       0.001940
                          1       6    4dxy             10.077428      14.259500
                                                         5.847736      15.771636
                                                         2.494033       4.936060
                                                         0.988355       0.960109
                                                         0.344978       0.116472
                                                         0.099466       0.003360
                          1       6    4dxz             10.077428      14.259500
                                                         5.847736      15.771636
                                                         2.494033       4.936060
                                                         0.988355       0.960109
                                                         0.344978       0.116472
                                                         0.099466       0.003360
                          1       6    4dy2             10.077428       8.232726
                                                         5.847736       9.105758
                                                         2.494033       2.849835
                                                         0.988355       0.554319
                                                         0.344978       0.067245
                                                         0.099466       0.001940
                          1       6    4dyz             10.077428      14.259500
                                                         5.847736      15.771636
                                                         2.494033       4.936060
                                                         0.988355       0.960109
                                                         0.344978       0.116472
                                                         0.099466       0.003360
                          1       6    4dz2             10.077428       8.232726
                                                         5.847736       9.105758
                                                         2.494033       2.849835
                                                         0.988355       0.554319
                                                         0.344978       0.067245
                                                         0.099466       0.001940

                          1       7    5dx2             10.077428      -2.715373
                                                         5.847736      -4.020640
                                                         2.494033      -1.397569
                                                         0.988355      -0.076143
                                                         0.344978       0.033435
                                                         0.099466       0.026032
                          1       7    5dxy             10.077428      -4.703164
                                                         5.847736      -6.963952
                                                         2.494033      -2.420661
                                                         0.988355      -0.131883
                                                         0.344978       0.057911
                                                         0.099466       0.045088
                          1       7    5dxz             10.077428      -4.703164
                                                         5.847736      -6.963952
                                                         2.494033      -2.420661
                                                         0.988355      -0.131883
                                                         0.344978       0.057911
                                                         0.099466       0.045088
                          1       7    5dy2             10.077428      -2.715373
                                                         5.847736      -4.020640
                                                         2.494033      -1.397569
                                                         0.988355      -0.076143
                                                         0.344978       0.033435
                                                         0.099466       0.026032
                          1       7    5dyz             10.077428      -4.703164
                                                         5.847736      -6.963952
                                                         2.494033      -2.420661
                                                         0.988355      -0.131883
                                                         0.344978       0.057911
                                                         0.099466       0.045088
                          1       7    5dz2             10.077428      -2.715373
                                                         5.847736      -4.020640
                                                         2.494033      -1.397569
                                                         0.988355      -0.076143
                                                         0.344978       0.033435
                                                         0.099466       0.026032

                          1       8    5fx3             10.077428      -0.467694
                                                         5.847736       0.618100
                                                         2.494033       0.066069
                                                         0.988355       0.262898
                                                         0.344978       0.004720
                                                         0.099466       0.007748
                          1       8    5fx2y            10.077428      -1.045795
                                                         5.847736       1.382114
                                                         2.494033       0.147734
                                                         0.988355       0.587859
                                                         0.344978       0.010555
                                                         0.099466       0.017325
                          1       8    5fx2z            10.077428      -1.045795
                                                         5.847736       1.382114
                                                         2.494033       0.147734
                                                         0.988355       0.587859
                                                         0.344978       0.010555
                                                         0.099466       0.017325
                          1       8    5fxy2            10.077428      -1.045795
                                                         5.847736       1.382114
                                                         2.494033       0.147734
                                                         0.988355       0.587859
                                                         0.344978       0.010555
                                                         0.099466       0.017325
                          1       8    5fxyz            10.077428      -1.811371
                                                         5.847736       2.393892
                                                         2.494033       0.255883
                                                         0.988355       1.018201
                                                         0.344978       0.018282
                                                         0.099466       0.030008
                          1       8    5fxz2            10.077428      -1.045795
                                                         5.847736       1.382114
                                                         2.494033       0.147734
                                                         0.988355       0.587859
                                                         0.344978       0.010555
                                                         0.099466       0.017325
                          1       8    5fy3             10.077428      -0.467694
                                                         5.847736       0.618100
                                                         2.494033       0.066069
                                                         0.988355       0.262898
                                                         0.344978       0.004720
                                                         0.099466       0.007748
                          1       8    5fy2z            10.077428      -1.045795
                                                         5.847736       1.382114
                                                         2.494033       0.147734
                                                         0.988355       0.587859
                                                         0.344978       0.010555
                                                         0.099466       0.017325
                          1       8    5fyz2            10.077428      -1.045795
                                                         5.847736       1.382114
                                                         2.494033       0.147734
                                                         0.988355       0.587859
                                                         0.344978       0.010555
                                                         0.099466       0.017325
                          1       8    5fz3             10.077428      -0.467694
                                                         5.847736       0.618100
                                                         2.494033       0.066069
                                                         0.988355       0.262898
                                                         0.344978       0.004720
                                                         0.099466       0.007748

       Atomic covalent radius [Angstrom]:                                  1.150

       Atomic van der Waals radius [Angstrom]:                             1.630

     GTH Potential information for                                   GTH-PBE-q18

       Description:                       Goedecker-Teter-Hutter pseudopotential
                                           Goedecker et al., PRB 54, 1703 (1996)
                                          Hartwigsen et al., PRB 58, 3641 (1998)
                                                      Krack, TCA 114, 145 (2005)

       Gaussian exponent of the core charge distribution:               4.081633
       Electronic configuration (s p d ...):                           4   6   8

       Parameters of the local part of the GTH pseudopotential:

                          rloc        C1          C2          C3          C4
                        0.350000    2.102166    0.648484

       Parameters of the non-local part of the GTH pseudopotential:

                   l      r(l)      h(i,j,l)

                   0    0.261295    0.622658    9.970227
                                    9.970227  -12.871507
                   1    0.224253  -11.142708   12.429566
                                   12.429566  -14.706861
                   2    0.215348  -12.628146


 MOLECULE KIND INFORMATION


 All atoms are their own molecule, skipping detailed information


 TOTAL NUMBERS AND MAXIMUM NUMBERS

  Total number of            - Atomic kinds:                                   2
                             - Atoms:                                         32
                             - Shell sets:                                    32
                             - Shells:                                       256
                             - Primitive Cartesian functions:                192
                             - Cartesian basis functions:                    992
                             - Spherical basis functions:                    832

  Maximum angular momentum of- Orbital basis functions:                        3
                             - Local part of the GTH pseudopotential:          2
                             - Non-local part of the GTH pseudopotential:      3


 MODULE QUICKSTEP: ATOMIC COORDINATES IN ANGSTROM

   Atom Kind Element         X             Y             Z       Z(eff)     Mass
      1    1 Ni   28      0.876298      0.876298      7.370500  18.0000  58.6934
      2    1 Ni   28      0.876298      4.382298      7.370500  18.0000  58.6934
      3    1 Ni   28      2.629298      2.629298      7.370500  18.0000  58.6934
      4    1 Ni   28      2.629298      6.135298      7.370500  18.0000  58.6934
      5    1 Ni   28      4.382298      0.876298      7.370500  18.0000  58.6934
      6    1 Ni   28      4.382298      4.382298      7.370500  18.0000  58.6934
      7    1 Ni   28      6.135298      2.629298      7.370500  18.0000  58.6934
      8    1 Ni   28      6.135298      6.135298      7.370500  18.0000  58.6934
      9    2 Ni   28      0.876298      2.629298      9.123500  18.0000  58.6934
     10    2 Ni   28      0.876298      6.135298      9.123500  18.0000  58.6934
     11    2 Ni   28      2.629298      0.876298      9.123500  18.0000  58.6934
     12    2 Ni   28      2.629298      4.382298      9.123500  18.0000  58.6934
     13    2 Ni   28      4.382298      2.629298      9.123500  18.0000  58.6934
     14    2 Ni   28      4.382298      6.135298      9.123500  18.0000  58.6934
     15    2 Ni   28      6.135298      0.876298      9.123500  18.0000  58.6934
     16    2 Ni   28      6.135298      4.382298      9.123500  18.0000  58.6934
     17    2 Ni   28      0.876298      0.876298     10.876500  18.0000  58.6934
     18    2 Ni   28      0.876298      4.382298     10.876500  18.0000  58.6934
     19    2 Ni   28      2.629298      2.629298     10.876500  18.0000  58.6934
     20    2 Ni   28      2.629298      6.135298     10.876500  18.0000  58.6934
     21    2 Ni   28      4.382298      0.876298     10.876500  18.0000  58.6934
     22    2 Ni   28      4.382298      4.382298     10.876500  18.0000  58.6934
     23    2 Ni   28      6.135298      2.629298     10.876500  18.0000  58.6934
     24    2 Ni   28      6.135298      6.135298     10.876500  18.0000  58.6934
     25    1 Ni   28      0.876298      2.629298     12.629500  18.0000  58.6934
     26    1 Ni   28      0.876298      6.135298     12.629500  18.0000  58.6934
     27    1 Ni   28      2.629298      0.876298     12.629500  18.0000  58.6934
     28    1 Ni   28      2.629298      4.382298     12.629500  18.0000  58.6934
     29    1 Ni   28      4.382298      2.629298     12.629500  18.0000  58.6934
     30    1 Ni   28      4.382298      6.135298     12.629500  18.0000  58.6934
     31    1 Ni   28      6.135298      0.876298     12.629500  18.0000  58.6934
     32    1 Ni   28      6.135298      4.382298     12.629500  18.0000  58.6934



 SCF PARAMETERS         Density guess:                                    ATOMIC
                        --------------------------------------------------------
                        max_scf:                                             500
                        max_scf_history:                                       0
                        max_diis:                                              4
                        --------------------------------------------------------
                        eps_scf:                                        1.00E-03
                        eps_scf_history:                                0.00E+00
                        eps_diis:                                       1.00E-01
                        eps_eigval:                                     1.00E-05
                        --------------------------------------------------------
                        level_shift [a.u.]:                             0.000000
                        added MOs                                       535  552
                        --------------------------------------------------------
                        Mixing method:                            BROYDEN_MIXING
                                                charge density mixing in g-space
                        --------------------------------------------------------
                        Smear method:                                FERMI_DIRAC
                        Electronic temperature [K]:                       2000.0
                        Electronic temperature [a.u.]:                  6.33E-03
                        Accuracy threshold:                             1.00E-10
                        --------------------------------------------------------
                        No outer SCF

 PW_GRID| Information for grid number                                          1
 PW_GRID| Grid distributed over                                   128 processors
 PW_GRID| Real space group dimensions                                     8   16
 PW_GRID| the grid is blocked:                                               YES
 PW_GRID| Cutoff [a.u.]                                                    300.0
 PW_GRID| spherical cutoff:                                                   NO
 PW_GRID|   Bounds   1            -54      53                Points:         108
 PW_GRID|   Bounds   2            -54      53                Points:         108
 PW_GRID|   Bounds   3           -150     149                Points:         300
 PW_GRID| Volume element (a.u.^3)  0.1896E-02     Volume (a.u.^3)      6635.2971
 PW_GRID| Grid span                                                    FULLSPACE
 PW_GRID|   Distribution                         Average         Max         Min
 PW_GRID|   G-Vectors                            27337.5       28728       25272
 PW_GRID|   G-Rays                                 253.1         266         234
 PW_GRID|   Real Space Points                    27337.5       28728       25272

 PW_GRID| Information for grid number                                          2
 PW_GRID| Number of the reference grid                                         1
 PW_GRID| Grid distributed over                                   128 processors
 PW_GRID| Real space group dimensions                                     8   16
 PW_GRID| the grid is blocked:                                                NO
 PW_GRID| Cutoff [a.u.]                                                    100.0
 PW_GRID| spherical cutoff:                                                   NO
 PW_GRID|   Bounds   1            -30      29                Points:          60
 PW_GRID|   Bounds   2            -30      29                Points:          60
 PW_GRID|   Bounds   3            -90      89                Points:         180
 PW_GRID| Volume element (a.u.^3)  0.1024E-01     Volume (a.u.^3)      6635.2971
 PW_GRID| Grid span                                                    FULLSPACE
 PW_GRID|   Distribution                         Average         Max         Min
 PW_GRID|   G-Vectors                             5062.5       15960           0
 PW_GRID|   G-Rays                                  84.4         266           0
 PW_GRID|   Real Space Points                     5062.5        5760        3780

 PW_GRID| Information for grid number                                          3
 PW_GRID| Number of the reference grid                                         1
 PW_GRID| Grid distributed over                                   128 processors
 PW_GRID| Real space group dimensions                                     8   16
 PW_GRID| the grid is blocked:                                                NO
 PW_GRID| Cutoff [a.u.]                                                     33.3
 PW_GRID| spherical cutoff:                                                   NO
 PW_GRID|   Bounds   1            -18      17                Points:          36
 PW_GRID|   Bounds   2            -18      17                Points:          36
 PW_GRID|   Bounds   3            -50      49                Points:         100
 PW_GRID| Volume element (a.u.^3)  0.5120E-01     Volume (a.u.^3)      6635.2971
 PW_GRID| Grid span                                                    FULLSPACE
 PW_GRID|   Distribution                         Average         Max         Min
 PW_GRID|   G-Vectors                             1012.5        9576           0
 PW_GRID|   G-Rays                                  28.1         266           0
 PW_GRID|   Real Space Points                     1012.5        1500         800

 PW_GRID| Information for grid number                                          4
 PW_GRID| Number of the reference grid                                         1
 PW_GRID| Grid distributed over                                   128 processors
 PW_GRID| Real space group dimensions                                     8   16
 PW_GRID| the grid is blocked:                                                NO
 PW_GRID| Cutoff [a.u.]                                                     11.1
 PW_GRID| spherical cutoff:                                                   NO
 PW_GRID|   Bounds   1            -10       9                Points:          20
 PW_GRID|   Bounds   2            -10       9                Points:          20
 PW_GRID|   Bounds   3            -30      29                Points:          60
 PW_GRID| Volume element (a.u.^3)  0.2765         Volume (a.u.^3)      6635.2971
 PW_GRID| Grid span                                                    FULLSPACE
 PW_GRID|   Distribution                         Average         Max         Min
 PW_GRID|   G-Vectors                              187.5        3800           0
 PW_GRID|   G-Rays                                   9.4         190           0
 PW_GRID|   Real Space Points                      187.5         360         120

 PW_GRID| Information for grid number                                          5
 PW_GRID| Number of the reference grid                                         1
 PW_GRID| Grid distributed over                                   128 processors
 PW_GRID| Real space group dimensions                                     8   16
 PW_GRID| the grid is blocked:                                                NO
 PW_GRID| Cutoff [a.u.]                                                      3.7
 PW_GRID| spherical cutoff:                                                   NO
 PW_GRID|   Bounds   1             -6       5                Points:          12
 PW_GRID|   Bounds   2             -6       5                Points:          12
 PW_GRID|   Bounds   3            -18      17                Points:          36
 PW_GRID| Volume element (a.u.^3)   1.280         Volume (a.u.^3)      6635.2971
 PW_GRID| Grid span                                                    FULLSPACE
 PW_GRID|   Distribution                         Average         Max         Min
 PW_GRID|   G-Vectors                               40.5        1296           0
 PW_GRID|   G-Rays                                   3.4         108           0
 PW_GRID|   Real Space Points                       40.5          72           0

 POISSON| Solver                                                        PERIODIC
 POISSON| Periodicity                                                        XYZ

 RS_GRID| Information for grid number                                          1
 RS_GRID|   Bounds   1            -54      53                Points:         108
 RS_GRID|   Bounds   2            -54      53                Points:         108
 RS_GRID|   Bounds   3           -150     149                Points:         300
 RS_GRID| Real space distribution over                                  8 groups
 RS_GRID| Real space distribution along direction                              2
 RS_GRID| Border size                                                         28
 RS_GRID| Real space distribution over                                 16 groups
 RS_GRID| Real space distribution along direction                              3
 RS_GRID| Border size                                                         28
 RS_GRID|   Distribution                         Average         Max         Min
 RS_GRID|   Planes                                  69.5          70          69
 RS_GRID|   Distribution                         Average         Max         Min
 RS_GRID|   Planes                                  74.8          75          74

 RS_GRID| Information for grid number                                          2
 RS_GRID|   Bounds   1            -30      29                Points:          60
 RS_GRID|   Bounds   2            -30      29                Points:          60
 RS_GRID|   Bounds   3            -90      89                Points:         180
 RS_GRID| Real space fully replicated
 RS_GRID| Group size                                                           1

 RS_GRID| Information for grid number                                          3
 RS_GRID|   Bounds   1            -18      17                Points:          36
 RS_GRID|   Bounds   2            -18      17                Points:          36
 RS_GRID|   Bounds   3            -50      49                Points:         100
 RS_GRID| Real space fully replicated
 RS_GRID| Group size                                                           1

 RS_GRID| Information for grid number                                          4
 RS_GRID|   Bounds   1            -10       9                Points:          20
 RS_GRID|   Bounds   2            -10       9                Points:          20
 RS_GRID|   Bounds   3            -30      29                Points:          60
 RS_GRID| Real space fully replicated
 RS_GRID| Group size                                                           1

 RS_GRID| Information for grid number                                          5
 RS_GRID|   Bounds   1             -6       5                Points:          12
 RS_GRID|   Bounds   2             -6       5                Points:          12
 RS_GRID|   Bounds   3            -18      17                Points:          36
 RS_GRID| Real space fully replicated
 RS_GRID| Group size                                                           1

 Spin 1

 Number of electrons:                                                        296.960
 Number of occupied orbitals:                                                297
 Number of molecular orbitals:                                               832

 Spin 2

 Number of electrons:                                                        279.040
 Number of occupied orbitals:                                                280
 Number of molecular orbitals:                                               832

 Number of orbital functions:                                                832
 Number of independent orbital functions:                                    832

 Extrapolation method: initial_guess

 Atomic guess: The first density matrix is obtained in terms of atomic orbitals
               and electronic configurations assigned to each atomic kind

 Guess for atomic kind: Ni_i

 Electronic structure
    Total number of core electrons                                         10.00
    Total number of valence electrons                                      18.00
    Total number of electrons                                              28.00
    Multiplicity                                                         doublet
    Alpha Electrons
    S   [  1.00  1.00] 1.00  1.00
    P   [  3.00] 3.00
    D      4.25
    Beta Electrons
    S   [  1.00  1.00] 1.00  1.00
    P   [  3.00] 3.00
    D      3.75


 *******************************************************************************
                  Iteration          Convergence                     Energy [au]
 *******************************************************************************
                          1         1.51687                    -167.065012761055
                          2         14.9817                    -156.620431300845
                          3         2.25575                    -168.317311438693
                          4        0.189210                    -168.607926092750
                          5        0.708658E-01                -168.610773319290
                          6        0.122256E-01                -168.611238205502
                          7        0.598421E-02                -168.611272268995
                          8        0.528277E-02                -168.611272438110
                          9        0.104644E-02                -168.611275321653
                         10        0.260234E-02                -168.611274926630
                         11        0.975322E-03                -168.611275328217
                         12        0.161067E-03                -168.611275447773
                         13        0.147413E-03                -168.611275446839
                         14        0.115114E-03                -168.611275449434
                         15        0.167217E-03                -168.611275445436
                         16        0.255374E-04                -168.611275450531
                         17        0.418369E-04                -168.611275450414
                         18        0.393709E-04                -168.611275450477
                         19        0.239931E-04                -168.611275450542
                         20        0.173885E-04                -168.611275450557
                         21        0.851368E-05                -168.611275450578
                         22        0.849928E-05                -168.611275450580
                         23        0.544937E-05                -168.611275450584
                         24        0.540003E-05                -168.611275450586
                         25        0.613371E-05                -168.611275450584
                         26        0.311593E-06                -168.611275450588

 Energy components [Hartree]           Total Energy ::         -168.611275450588
                                        Band Energy ::          -26.568680144499
                                     Kinetic Energy ::           97.303659243130
                                   Potential Energy ::         -265.914934693718
                                      Virial (-V/T) ::            2.732835915546
                                        Core Energy ::         -299.566189183323
                                          XC Energy ::          -16.224592878785
                                     Coulomb Energy ::          147.179506611520
                       Total Pseudopotential Energy ::         -396.956189041778
                       Local Pseudopotential Energy ::         -362.645043136649
                    Nonlocal Pseudopotential Energy ::          -34.311145905129
                                        Confinement ::            0.863406153250

 Orbital energies  State     Spin  L     Occupation   Energy[a.u.]    Energy[eV]

                       1    alpha  0          1.000      -4.168335   -113.426177
                       2    alpha  0          1.000      -0.180730     -4.917906
                       1     beta  0          1.000      -4.145459   -112.803683
                       2     beta  0          1.000      -0.177117     -4.819606

                       1    alpha  1          3.000      -2.574525    -70.056390
                       1     beta  1          3.000      -2.552268    -69.450746

                       1    alpha  2          4.250      -0.323446     -8.801405
                       1     beta  2          3.750      -0.304537     -8.286881


 Total Electron Density at R=0:                                         0.030429

 Guess for atomic kind: Ni_b

 Electronic structure
    Total number of core electrons                                         10.00
    Total number of valence electrons                                      18.00
    Total number of electrons                                              28.00
    Multiplicity                                                         doublet
    Alpha Electrons
    S   [  1.00  1.00] 1.00  1.00
    P   [  3.00] 3.00
    D      4.31
    Beta Electrons
    S   [  1.00  1.00] 1.00  1.00
    P   [  3.00] 3.00
    D      3.69


 *******************************************************************************
                  Iteration          Convergence                     Energy [au]
 *******************************************************************************
                          1         1.51712                    -167.066363371000
                          2         15.2271                    -156.632879379674
                          3         2.30303                    -168.318457853772
                          4        0.199800                    -168.609034128887
                          5        0.772667E-01                -168.611949054640
                          6        0.149234E-01                -168.612488305435
                          7        0.422793E-02                -168.612544423197
                          8        0.415791E-02                -168.612544256359
                          9        0.599077E-03                -168.612546042096
                         10        0.216819E-02                -168.612545737457
                         11        0.949726E-03                -168.612545954185
                         12        0.169837E-03                -168.612546070119
                         13        0.200325E-03                -168.612546069598
                         14        0.152673E-03                -168.612546073623
                         15        0.186396E-03                -168.612546069819
                         16        0.998197E-04                -168.612546075850
                         17        0.106666E-03                -168.612546075412
                         18        0.426781E-04                -168.612546076473
                         19        0.266541E-04                -168.612546076555
                         20        0.115900E-04                -168.612546076603
                         21        0.403173E-05                -168.612546076631
                         22        0.935820E-05                -168.612546076619
                         23        0.450859E-05                -168.612546076631
                         24        0.219456E-05                -168.612546076634
                         25        0.912083E-06                -168.612546076634

 Energy components [Hartree]           Total Energy ::         -168.612546076634
                                        Band Energy ::          -26.569290644726
                                     Kinetic Energy ::           97.305378932033
                                   Potential Energy ::         -265.917925008667
                                      Virial (-V/T) ::            2.732818349070
                                        Core Energy ::         -299.567195261203
                                          XC Energy ::          -16.226047173492
                                     Coulomb Energy ::          147.180696358062
                       Total Pseudopotential Energy ::         -396.958914991695
                       Local Pseudopotential Energy ::         -362.646867951725
                    Nonlocal Pseudopotential Energy ::          -34.312047039970
                                        Confinement ::            0.863407984587

 Orbital energies  State     Spin  L     Occupation   Energy[a.u.]    Energy[eV]

                       1    alpha  0          1.000      -4.170944   -113.497166
                       2    alpha  0          1.000      -0.181151     -4.929375
                       1     beta  0          1.000      -4.142578   -112.725269
                       2     beta  0          1.000      -0.176671     -4.807473

                       1    alpha  1          3.000      -2.577063    -70.125464
                       1     beta  1          3.000      -2.549465    -69.374459

                       1    alpha  2          4.310      -0.325610     -8.860291
                       1     beta  2          3.690      -0.302164     -8.222292


 Total Electron Density at R=0:                                         0.030425

 Spin 1
 Re-scaling the density matrix to get the right number of electrons for spin 1
                  # Electrons              Trace(P)               Scaling factor
                        296.960             296.960                        1.000

 Spin 2
 Re-scaling the density matrix to get the right number of electrons for spin 2
                  # Electrons              Trace(P)               Scaling factor
                        279.040             279.040                        1.000


 SCF WAVEFUNCTION OPTIMIZATION

  Step     Update method      Time    Convergence         Total energy    Change
  ------------------------------------------------------------------------------
     1 NoMix/Diag. 0.80E-01    2.6     0.87410145     -5426.4280977266 -5.43E+03
     2 Broy./Diag. 0.80E-01    1.5     0.01622456     -5316.2301230650  1.10E+02
     3 Broy./Diag. 0.80E-01    1.5     0.04984588     -5351.7029518216 -3.55E+01
     4 Broy./Diag. 0.80E-01    1.5     0.00531387     -5413.6137994740 -6.19E+01
     5 Broy./Diag. 0.80E-01    1.5     0.01569309     -5415.2456105581 -1.63E+00
     6 Broy./Diag. 0.80E-01    1.5     0.00601770     -5417.1972716791 -1.95E+00
     7 Broy./Diag. 0.80E-01    1.5     0.00401269     -5416.7308562163  4.66E-01
     8 Broy./Diag. 0.80E-01    1.5     0.00908109     -5416.9559487043 -2.25E-01
     9 Broy./Diag. 0.80E-01    1.5     0.00199704     -5417.3388865503 -3.83E-01
    10 Broy./Diag. 0.80E-01    1.5     0.00409234     -5417.4242398376 -8.54E-02
    11 Broy./Diag. 0.80E-01    1.5     0.00604431     -5417.4993491390 -7.51E-02
    12 Broy./Diag. 0.80E-01    1.5     0.00689238     -5417.6198254274 -1.20E-01
    13 Broy./Diag. 0.80E-01    1.5     0.00191415     -5417.5887762108  3.10E-02
    14 Broy./Diag. 0.80E-01    1.5     0.00711931     -5417.7024148717 -1.14E-01
    15 Broy./Diag. 0.80E-01    1.5     0.01743779     -5417.4724108215  2.30E-01
    16 Broy./Diag. 0.80E-01    1.5     0.01316947     -5417.5030353930 -3.06E-02
[...]
      26     Ni       1         9.291998     8.686851     0.021151     0.605147
      27     Ni       1         9.291953     8.686806     0.021240     0.605147
      28     Ni       1         9.291908     8.686764     0.021329     0.605144
      29     Ni       1         9.291908     8.686764     0.021329     0.605144
      30     Ni       1         9.291953     8.686806     0.021240     0.605147
      31     Ni       1         9.291998     8.686851     0.021151     0.605147
      32     Ni       1         9.291953     8.686806     0.021240     0.605147
 # Total charge and spin      297.733068   278.266932    -0.000000    19.466136

 !-----------------------------------------------------------------------------!

 !-----------------------------------------------------------------------------!
                           Hirshfeld Charges

  #Atom  Element  Kind  Ref Charge     Population       Spin moment  Net charge
      1       Ni     1      18.000    9.314   8.705            0.609     -0.019
      2       Ni     1      18.000    9.314   8.705            0.609     -0.019
      3       Ni     1      18.000    9.314   8.705            0.609     -0.019
      4       Ni     1      18.000    9.314   8.705            0.609     -0.019
      5       Ni     1      18.000    9.314   8.705            0.609     -0.019
      6       Ni     1      18.000    9.314   8.705            0.609     -0.019
      7       Ni     1      18.000    9.314   8.705            0.609     -0.019
      8       Ni     1      18.000    9.314   8.705            0.609     -0.019
      9       Ni     2      18.000    9.294   8.687            0.607      0.019
     10       Ni     2      18.000    9.294   8.687            0.607      0.019
     11       Ni     2      18.000    9.294   8.687            0.607      0.019
     12       Ni     2      18.000    9.294   8.687            0.607      0.019
     13       Ni     2      18.000    9.294   8.687            0.607      0.019
     14       Ni     2      18.000    9.294   8.687            0.607      0.019
     15       Ni     2      18.000    9.294   8.687            0.607      0.019
     16       Ni     2      18.000    9.294   8.687            0.607      0.019
     17       Ni     2      18.000    9.294   8.687            0.607      0.019
     18       Ni     2      18.000    9.294   8.687            0.607      0.019
     19       Ni     2      18.000    9.294   8.687            0.607      0.019
     20       Ni     2      18.000    9.294   8.687            0.607      0.019
     21       Ni     2      18.000    9.294   8.687            0.607      0.019
     22       Ni     2      18.000    9.294   8.687            0.607      0.019
     23       Ni     2      18.000    9.294   8.687            0.607      0.019
     24       Ni     2      18.000    9.294   8.687            0.607      0.019
     25       Ni     1      18.000    9.314   8.705            0.609     -0.019
     26       Ni     1      18.000    9.314   8.705            0.609     -0.019
     27       Ni     1      18.000    9.314   8.705            0.609     -0.019
     28       Ni     1      18.000    9.314   8.705            0.609     -0.019
     29       Ni     1      18.000    9.314   8.705            0.609     -0.019
     30       Ni     1      18.000    9.314   8.705            0.609     -0.019
     31       Ni     1      18.000    9.314   8.705            0.609     -0.019
     32       Ni     1      18.000    9.314   8.705            0.609     -0.019

  Total Charge                                                           -0.000
 !-----------------------------------------------------------------------------!

 ENERGY| Total FORCE_EVAL ( QS ) energy [a.u.]:            -5418.562344461456632

 -------------------------------------------------------------------------------
 -                                                                             -
 -                                DBCSR STATISTICS                             -
 -                                                                             -
 -------------------------------------------------------------------------------
 COUNTER                                    TOTAL       BLAS       SMM       ACC
 flops inhomo. stacks                           0       0.0%      0.0%      0.0%
 flops total                         0.000000E+00       0.0%      0.0%      0.0%
 flops max/rank                      0.000000E+00       0.0%      0.0%      0.0%
 matmuls inhomo. stacks                         0       0.0%      0.0%      0.0%
 matmuls total                                  0       0.0%      0.0%      0.0%
 number of processed stacks                     0       0.0%      0.0%      0.0%
 average stack size                                     0.0       0.0       0.0
 marketing flops                     0.000000E+00
 -------------------------------------------------------------------------------
 -                                                                             -
 -                      DBCSR MESSAGE PASSING PERFORMANCE                      -
 -                                                                             -
 -------------------------------------------------------------------------------
 ROUTINE             CALLS      AVE VOLUME [Bytes]
 MP_Bcast                1                     12.
 MP_Allreduce        12233                      8.
 MP_Alltoall         61528                  67245.
 -------------------------------------------------------------------------------

 -------------------------------------------------------------------------------
 -                                                                             -
 -                                DBM STATISTICS                               -
 -                                                                             -
 -------------------------------------------------------------------------------
    M  x    N  x    K                                          COUNT     PERCENT
 -------------------------------------------------------------------------------

 -------------------------------------------------------------------------------
 -                                                                             -
 -                                GRID STATISTICS                              -
 -                                                                             -
 -------------------------------------------------------------------------------
 LP    KERNEL             BACKEND                              COUNT     PERCENT
 6     collocate ortho    REF                                3498880      49.84%
 6     integrate ortho    REF                                3419360      48.70%
 0     integrate general  REF                                  65536       0.93%
 0     collocate general  REF                                  36864       0.53%
 -------------------------------------------------------------------------------

 MEMORY| Estimated peak process memory [MiB]                                 327

 -------------------------------------------------------------------------------
 ----                             MULTIGRID INFO                            ----
 -------------------------------------------------------------------------------
 count for grid        1:        3800032          cutoff [a.u.]          300.00
 count for grid        2:        1164976          cutoff [a.u.]          100.00
 count for grid        3:         843344          cutoff [a.u.]           33.33
 count for grid        4:         180848          cutoff [a.u.]           11.11
 count for grid        5:          10240          cutoff [a.u.]            3.70
 total gridlevel count  :        5999440

 -------------------------------------------------------------------------------
 -                                                                             -
 -                         MESSAGE PASSING PERFORMANCE                         -
 -                                                                             -
 -------------------------------------------------------------------------------

 ROUTINE             CALLS      AVE VOLUME [Bytes]
 MP_Group                6
 MP_Bcast            24873                  14926.
 MP_Allreduce         7291                    825.
 MP_Sync              1397
 MP_Alltoall          2872               74549197.
 MP_SendRecv         44704                  15384.
 MP_ISendRecv        43688                  15384.
 MP_Wait             67804
 MP_ISend            35608                  31142.
 MP_IRecv            46704                  23315.
 MP_Recv             10650                 212992.
 MP_Write_All            2                  55300.
 -------------------------------------------------------------------------------


 -------------------------------------------------------------------------------
 -                                                                             -
 -                           R E F E R E N C E S                               -
 -                                                                             -
 -------------------------------------------------------------------------------
 
 CP2K version 2023.1 (Development Version), the CP2K developers group (2023).
 CP2K is freely available from https://www.cp2k.org/ .

 Kuehne,Thomas D.; Iannuzzi,Marcella; Del Ben,Mauro;
 Rybkin,Vladimir V.; Seewald,Patrick; Stein,Frederick; Laino,Teodoro;
 Khaliullin,Rustam Z.; Schuett,Ole; Schiffmann,Florian; Golze,Dorothea;
 Wilhelm,Jan; Chulkov,Sergey; Bani-Hashemian,Mohammad Hossein;
 Weber,Valery; Borstnik,Urban; Taillefumier,Mathieu;
 Jakobovits,Alice Shoshana; Lazzaro,Alfio; Pabst,Hans; Mueller,Tiziano;
 Schade,Robert; Guidon,Manuel; Andermatt,Samuel; Holmberg,Nico;
 Schenter,Gregory K.; Hehn,Anna; Bussy,Augustin; Belleflamme,Fabian;
 Tabacchi,Gloria; Gloess,Andreas; Lass,Michael; Bethune,Iain;
 Mundy,Christopher J.; Plessl,Christian; Watkins,Matt;
 VandeVondele,Joost; Krack,Matthias; Hutter,Juerg. 
 The Journal of Chemical Physics, 152 (19), (2020). 
 CP2K: An electronic structure and molecular dynamics software package -
 Quickstep: Efficient and accurate electronic structure calculations.
 https://doi.org/10.1063/5.0007045

 Goerigk, Lars; Hansen, Andreas; Bauer, Christoph; Ehrlich, Stephan;
 Najibi, Asim; Grimme, Stefan. , 19 (48), (2017). 
 A look at the density functional theory zoo with the advanced GMTKN55 database
 for general main group thermochemistry, kinetics and noncovalent interactions.
 https://doi.org/10.1039/C7CP04913G

 Schuett, Ole; Messmer, Peter; Hutter, Juerg; VandeVondele, Joost. 
 Electronic Structure Calculations on Graphics Processing Units, John
 Wiley & Sons, Ltd, 173-190 (2016). 
 GPU-Accelerated Sparse Matrix-Matrix Multiplication for
 Linear Scaling Density Functional Theory.
 https://doi.org/10.1002/9781118670712.ch8

 Heinecke, A; Henry, G; Hutchinson, M; Pabst, H. 
 Proceedings of Intl. Supercomputing Conference, 981-991 (2016). 
 LIBXSMM: Accelerating Small Matrix Multiplications
 by Runtime Code Generation.
 https://doi.org/10.1109/SC.2016.83

 Borstnik, U; VandeVondele, J; Weber, V; Hutter, J. 
 PARALLEL COMPUTING, 40 (5-6), 47-58 (2014). 
 Sparse matrix multiplication: The distributed block-compressed sparse
 row library.
 https://doi.org/10.1016/j.parco.2014.03.012

 Hutter, J; Iannuzzi, M; Schiffmann, F; VandeVondele, J. 
 WIREs Comput Mol Sci., 4 (1), 15-25 (2014). 
 CP2K: atomistic simulations of condensed matter systems.
 https://doi.org/10.1002/wcms.1159

 Marek, A; Blum, V; Johanni, R; Havu, V; Lang, B; Auckenthaler, T;
 Heinecke, A; Bungartz, H; Lederer, H. 
 Journal of Physics: Condensed Matter, 26 (21), (2014). 
 The ELPA library: scalable parallel eigenvalue solutions for
 electronic structure
 theory and computational science.
 https://doi.org/10.1088/0953-8984/26/21/213201

 Grimme, S; Ehrlich, S; Goerigk, L. 
 JOURNAL OF COMPUTATIONAL CHEMISTRY, 32, 1456 (2011). 
 Effect of the damping function in dispersion corrected density functional theory.
 https://doi.org/10.1002/jcc.21759

 Grimme, S; Antony, J; Ehrlich, S; Krieg, H. 
 JOURNAL OF CHEMICAL PHYSICS, 132 (15), 154104 (2010). 
 A consistent and accurate ab initio parametrization of density
 functional dispersion correction (DFT-D) for the 94 elements H-Pu.
 https://doi.org/10.1063/1.3382344

 VandeVondele, J; Hutter, J. 
 JOURNAL OF CHEMICAL PHYSICS, 127 (11), 114105 (2007). 
 Gaussian basis sets for accurate calculations on molecular systems in
 gas and condensed phases.
 https://doi.org/10.1063/1.2770708

 Krack, M. 
 THEORETICAL CHEMISTRY ACCOUNTS, 114 (1-3), 145-152 (2005). 
 Pseudopotentials for H to Kr optimized for gradient-corrected
 exchange-correlation functionals.
 https://doi.org/10.1007/s00214-005-0655-y

 VandeVondele, J; Krack, M; Mohamed, F; Parrinello, M; Chassaing, T;
 Hutter, J. COMPUTER PHYSICS COMMUNICATIONS, 167 (2), 103-128 (2005). 
 QUICKSTEP: Fast and accurate density functional calculations using a
 mixed Gaussian and plane waves approach.
 https://doi.org/10.1016/j.cpc.2004.12.014

 Frigo, M; Johnson, SG. 
 PROCEEDINGS OF THE IEEE, 93 (2), 216-231 (2005). 
 The design and implementation of FFTW3.
 https://doi.org/10.1109/JPROC.2004.840301

 Hartwigsen, C; Goedecker, S; Hutter, J. 
 PHYSICAL REVIEW B, 58 (7), 3641-3662 (1998). 
 Relativistic separable dual-space Gaussian pseudopotentials from H to Rn.
 https://doi.org/10.1103/PhysRevB.58.3641

 Lippert, G; Hutter, J; Parrinello, M. 
 MOLECULAR PHYSICS, 92 (3), 477-487 (1997). 
 A hybrid Gaussian and plane wave density functional scheme.
 https://doi.org/10.1080/002689797170220

 Perdew, JP; Burke, K; Ernzerhof, M. 
 PHYSICAL REVIEW LETTERS, 77 (18), 3865-3868 (1996). 
 Generalized gradient approximation made simple.
 https://doi.org/10.1103/PhysRevLett.77.3865

 Goedecker, S; Teter, M; Hutter, J. 
 PHYSICAL REVIEW B, 54 (3), 1703-1710 (1996). 
 Separable dual-space Gaussian pseudopotentials.
 https://doi.org/10.1103/PhysRevB.54.1703


 -------------------------------------------------------------------------------
 -                                                                             -
 -                                T I M I N G                                  -
 -                                                                             -
 -------------------------------------------------------------------------------
 SUBROUTINE                       CALLS  ASD         SELF TIME        TOTAL TIME
                                MAXIMUM       AVERAGE  MAXIMUM  AVERAGE  MAXIMUM
 CP2K                                 1  1.0    0.243    0.264   74.233   74.234
 qs_energies                          1  2.0    0.001    0.003   72.327   72.329
 scf_env_do_scf                       1  3.0    0.001    0.002   70.260   70.267
 scf_env_do_scf_inner_loop           43  4.0    0.011    0.016   70.260   70.266
 qs_scf_new_mos_kp                   43  5.0    0.000    0.001   39.205   39.215
 do_general_diag_kp                  43  6.0    0.016    0.018   39.205   39.214
 cp_cfm_geeig                        86  7.0    0.002    0.003   28.391   28.639
 cp_cfm_heevd                        86  8.0   16.922   17.381   16.922   17.381
 qs_ks_update_qs_env                 43  5.0    0.001    0.001   16.040   16.052
 rebuild_ks_matrix                   43  6.0    0.001    0.002   15.651   15.662
 qs_ks_build_kohn_sham_matrix        43  7.0    0.017    0.024   15.650   15.661
 qs_rho_update_rho_low               44  5.0    0.001    0.001    9.736    9.844
 calculate_rho_elec                  88  6.0    0.017    0.018    9.736    9.844
 sum_up_and_integrate                43  8.0    0.031    0.044    9.095    9.211
 integrate_v_rspace                  86  9.0    0.003    0.004    9.064    9.183
 cp_cfm_triangular_multiply         258  8.0    8.145    8.616    8.145    8.616
 pw_transfer                       1774 10.0    0.203    0.270    7.806    8.171
 fft_wrap_pw1pw2                   1688 11.0    0.019    0.027    7.590    7.931
 rs_pw_transfer                     874  9.5    0.014    0.024    5.922    7.190
 fft_wrap_pw1pw2_300                992 12.4    0.325    0.381    6.769    7.039
 density_rs2pw                       88  7.0    0.004    0.005    4.954    6.238
 fft3d_pb                           992 13.4    1.326    1.529    5.898    6.224
 qs_vxc_create                       43  8.0    0.002    0.003    5.920    5.948
 xc_vxc_pw_create                    43  9.0    0.064    0.081    5.918    5.946
 grid_collocate_task_list            88  7.0    4.439    5.887    4.439    5.887
 copy_dbcsr_to_fm                  3178  6.9    0.028    0.030    4.957    5.397
 grid_integrate_task_list            86 10.0    3.616    5.358    3.616    5.358
 dbcsr_desymmetrize_deep           5930  7.5    0.197    0.257    4.109    4.666
 mp_alltoall_i22                  10484  8.8    3.827    4.566    3.827    4.566
 xc_pw_derive                       516 11.0    0.004    0.005    3.868    4.116
 mp_alltoall_d11v                 31626  9.4    2.739    3.755    2.739    3.755
 potential_pw2rs                     86 10.0    0.005    0.006    3.588    3.742
 write_kpoints_restart               43  5.0    0.003    0.012    3.631    3.654
 mp_alltoall_z22v                  2680 15.2    2.824    3.623    2.824    3.623
 mp_waitany                        4628 11.4    2.211    3.408    2.211    3.408
 xc_rho_set_and_dset_create          43 10.0    0.122    0.139    3.265    3.368
 cp_fm_write_unformatted            426  6.0    0.177    2.976    0.488    3.337
 kpoint_density_matrices             43  7.0    0.015    0.018    3.158    3.265
 parallel_gemm_fm                   344  8.0    0.001    0.001    3.123    3.234
 parallel_gemm_fm_gemm              344  9.0    0.001    0.001    3.123    3.233
 cp_fm_gemm                         344 10.0    3.122    3.233    3.122    3.233
 rs_pw_transfer_RS2PW_300            90  9.0    0.188    0.350    1.888    3.173
 mp_send_dv                         426  7.0    0.308    3.019    0.308    3.019
 rs_gather_matrices                  86 10.0    0.027    0.049    1.857    2.809
 xc_pw_divergence                    86 10.0    0.002    0.003    2.511    2.707
 cp_cfm_cholesky_decompose           86  8.0    2.220    2.358    2.220    2.358
 cp_fm_start_copy_general          4128  7.3    0.386    0.552    2.223    2.323
 kpoint_density_transform            43  7.0    0.009    0.010    2.223    2.289
 dbcsr_complete_redistribute       4554  8.2    0.284    0.341    1.945    2.040
 mp_allgather_i                    8256  8.3    1.702    1.894    1.702    1.894
 cube_transpose_3                   559 14.0    0.529    0.616    1.576    1.798
 kpoint_set_mo_occupation            43  7.0    1.138    1.155    1.495    1.706
 rs_pw_transfer_PW2RS_300            88 11.9    0.597    0.741    1.559    1.645
 gspace_mixing                       42  5.0    0.016    0.017    1.594    1.595
 -------------------------------------------------------------------------------

 The number of warnings for this run is : 7
 
 -------------------------------------------------------------------------------
  **** **** ******  **  PROGRAM ENDED AT                 2023-02-15 10:08:06.056
 ***** ** ***  *** **   PROGRAM RAN ON                                 nid002240
 **    ****   ******    PROGRAM RAN BY                                    cahart
 ***** **    ** ** **   PROGRAM PROCESS ID                                 59375
  **** **  *******  **  PROGRAM STOPPED IN /mnt/lustre/a2fs-work2/work/e05/e05/c
                                           ahart/postdoc/masters/ni/archer2/slab
                                           /optimise/magnetisation/scf_1e-3_temp
                                           -2000_mos-1000_alpha-0.08_beta-1.5_pe
                                           riodic-xyz/search/0.62_0.5
