 DBCSR| CPU Multiplication driver                                           XSMM (U)
 DBCSR| Multrec recursion limit                                              512 (U)
 DBCSR| Multiplication stack size                                           1000 (D)
 DBCSR| Maximum elements for images                                    UNLIMITED (U)
 DBCSR| Multiplicative factor virtual images                                   1 (U)
 DBCSR| Use multiplication densification                                       T (D)
 DBCSR| Multiplication size stacks                                             3 (U)
 DBCSR| Use memory pool for CPU allocation                                     F (U)
 DBCSR| Number of 3D layers                                               SINGLE (U)
 DBCSR| Use MPI memory allocation                                              F (U)
 DBCSR| Use RMA algorithm                                                      F (U)
 DBCSR| Use Communication thread                                               T (U)
 DBCSR| Communication thread load                                             87 (D)
 DBCSR| MPI: My process id                                                     0
 DBCSR| MPI: Number of processes                                             128
 DBCSR| OMP: Current number of threads                                         1
 DBCSR| OMP: Max number of threads                                             1
 DBCSR| Split modifier for TAS multiplication algorithm                  1.0E+00 (U)


  **** **** ******  **  PROGRAM STARTED AT               2023-02-14 14:14:44.639
 ***** ** ***  *** **   PROGRAM STARTED ON                             nid003172
 **    ****   ******    PROGRAM STARTED BY                                cahart
 ***** **    ** ** **   PROGRAM PROCESS ID                                244156
  **** **  *******  **  PROGRAM STARTED IN /mnt/lustre/a2fs-work2/work/e05/e05/c
                                           ahart/postdoc/masters/ni/archer2/slab
                                           /optimise/alpha-beta/scf_5e-4_mos-100
                                           0_temp-2000_spin-0.7-0.5_periodic-xyz
                                           /search/4.0E-03_1.0

 CP2K| version string:                 CP2K version 2023.1 (Development Version)
 CP2K| source code revision number:                                  git:964cd58
 CP2K| cp2kflags: omp libint fftw3 libxc elpa parallel scalapack xsmm plumed2 mk
 CP2K|            l
 CP2K| is freely available from                            https://www.cp2k.org/
 CP2K| Program compiled at                          Mon 13 Feb 17:05:14 GMT 2023
 CP2K| Program compiled on                                                  ln01
 CP2K| Program compiled for                                              ARCHER2
 CP2K| Data directory path    /work/e05/e05/cahart/cp2k/cp2k-2023.1/cp2k-2023.1-
 CP2K| Input file name                                                  cp2k.inp

 GLOBAL| Force Environment number                                              1
 GLOBAL| Basis set file name                                        BASIS_MOLOPT
 GLOBAL| Potential file name                                      GTH_POTENTIALS
 GLOBAL| MM Potential file name                                     MM_POTENTIAL
 GLOBAL| Coordinate file name                                      __STD_INPUT__
 GLOBAL| Method name                                                        CP2K
 GLOBAL| Project name                                                    Ni_bulk
 GLOBAL| Run type                                                         ENERGY
 GLOBAL| FFT library                                                       FFTW3
 GLOBAL| Diagonalization library                                            ELPA
 GLOBAL| DGEMM library                                                      BLAS
 GLOBAL| Minimum number of eigenvectors for ELPA usage                        16
 GLOBAL| Orthonormality check for eigenvectors                          DISABLED
 GLOBAL| Matrix multiplication library                                 ScaLAPACK
 GLOBAL| All-to-all communication in single precision                          F
 GLOBAL| FFTs using library dependent lengths                                  F
 GLOBAL| Grid backend                                                       AUTO
 GLOBAL| Global print level                                               MEDIUM
 GLOBAL| MPI I/O enabled                                                       T
 GLOBAL| Total number of message passing processes                           128
 GLOBAL| Number of threads for this process                                    1
 GLOBAL| This output is from process                                           0
 GLOBAL| Stack size for threads created by OpenMP (OMP_STACKSIZE)        default
 GLOBAL| CPU model name                          AMD EPYC 7742 64-Core Processor
 GLOBAL| CPUID                                                              1002

 MEMORY| system memory details [Kb]
 MEMORY|                        rank 0           min           max       average
 MEMORY| MemTotal            263528088     263528088     263528088     263528088
 MEMORY| MemFree             238552736     238552736     238552736     238552736
 MEMORY| Buffers                 35032         35032         35032         35032
 MEMORY| Cached                 905664        905664        905664        905664
 MEMORY| Slab                  1652340       1652340       1652340       1652340
 MEMORY| SReclaimable           107652        107652        107652        107652
 MEMORY| MemLikelyFree       239601084     239601084     239601084     239601084


 *** Fundamental physical constants (SI units) ***

 *** Literature: B. J. Mohr and B. N. Taylor,
 ***             CODATA recommended values of the fundamental physical
 ***             constants: 2006, Web Version 5.1
 ***             http://physics.nist.gov/constants

 Speed of light in vacuum [m/s]                             2.99792458000000E+08
 Magnetic constant or permeability of vacuum [N/A**2]       1.25663706143592E-06
 Electric constant or permittivity of vacuum [F/m]          8.85418781762039E-12
 Planck constant (h) [J*s]                                  6.62606896000000E-34
 Planck constant (h-bar) [J*s]                              1.05457162825177E-34
 Elementary charge [C]                                      1.60217648700000E-19
 Electron mass [kg]                                         9.10938215000000E-31
 Electron g factor [ ]                                     -2.00231930436220E+00
 Proton mass [kg]                                           1.67262163700000E-27
 Fine-structure constant                                    7.29735253760000E-03
 Rydberg constant [1/m]                                     1.09737315685270E+07
 Avogadro constant [1/mol]                                  6.02214179000000E+23
 Boltzmann constant [J/K]                                   1.38065040000000E-23
 Atomic mass unit [kg]                                      1.66053878200000E-27
 Bohr radius [m]                                            5.29177208590000E-11

 *** Conversion factors ***

 [u] -> [a.u.]                                              1.82288848426455E+03
 [Angstrom] -> [Bohr] = [a.u.]                              1.88972613288564E+00
 [a.u.] = [Bohr] -> [Angstrom]                              5.29177208590000E-01
 [a.u.] -> [s]                                              2.41888432650478E-17
 [a.u.] -> [fs]                                             2.41888432650478E-02
 [a.u.] -> [J]                                              4.35974393937059E-18
 [a.u.] -> [N]                                              8.23872205491840E-08
 [a.u.] -> [K]                                              3.15774647902944E+05
 [a.u.] -> [kJ/mol]                                         2.62549961709828E+03
 [a.u.] -> [kcal/mol]                                       6.27509468713739E+02
 [a.u.] -> [Pa]                                             2.94210107994716E+13
 [a.u.] -> [bar]                                            2.94210107994716E+08
 [a.u.] -> [atm]                                            2.90362800883016E+08
 [a.u.] -> [eV]                                             2.72113838565563E+01
 [a.u.] -> [Hz]                                             6.57968392072181E+15
 [a.u.] -> [1/cm] (wave numbers)                            2.19474631370540E+05
 [a.u./Bohr**2] -> [1/cm]                                   5.14048714338585E+03
 

 CELL_TOP| Volume [angstrom^3]:                                       983.249569
 CELL_TOP| Vector a [angstrom     7.012     0.000     0.000   |a| =     7.011596
 CELL_TOP| Vector b [angstrom     0.000     7.012     0.000   |b| =     7.011596
 CELL_TOP| Vector c [angstrom     0.000     0.000    20.000   |c| =    20.000000
 CELL_TOP| Angle (b,c), alpha [degree]:                                90.000000
 CELL_TOP| Angle (a,c), beta  [degree]:                                90.000000
 CELL_TOP| Angle (a,b), gamma [degree]:                                90.000000
 CELL_TOP| Numerically orthorhombic:                                         YES
 CELL_TOP| Periodicity                                                       XYZ

 GENERATE|  Preliminary Number of Bonds generated:                             0
 GENERATE|  Achieved consistency in connectivity generation.

 CELL| Volume [angstrom^3]:                                           983.249569
 CELL| Vector a [angstrom]:       7.012     0.000     0.000   |a| =     7.011596
 CELL| Vector b [angstrom]:       0.000     7.012     0.000   |b| =     7.011596
 CELL| Vector c [angstrom]:       0.000     0.000    20.000   |c| =    20.000000
 CELL| Angle (b,c), alpha [degree]:                                    90.000000
 CELL| Angle (a,c), beta  [degree]:                                    90.000000
 CELL| Angle (a,b), gamma [degree]:                                    90.000000
 CELL| Numerically orthorhombic:                                             YES
 CELL| Periodicity                                                           XYZ

 CELL_REF| Volume [angstrom^3]:                                       983.249569
 CELL_REF| Vector a [angstrom     7.012     0.000     0.000   |a| =     7.011596
 CELL_REF| Vector b [angstrom     0.000     7.012     0.000   |b| =     7.011596
 CELL_REF| Vector c [angstrom     0.000     0.000    20.000   |c| =    20.000000
 CELL_REF| Angle (b,c), alpha [degree]:                                90.000000
 CELL_REF| Angle (a,c), beta  [degree]:                                90.000000
 CELL_REF| Angle (a,b), gamma [degree]:                                90.000000
 CELL_REF| Numerically orthorhombic:                                         YES
 CELL_REF| Periodicity                                                       XYZ

 *** WARNING in cryssym.F:165 :: Symmetry library SPGLIB not available ***


 *******************************************************************************
                                    Kpoints
 *******************************************************************************
 BRILLOUIN| K-point scheme                                        Monkhorst-Pack
 BRILLOUIN| K-Point grid                                             4    4    1
 BRILLOUIN| Accuracy in Symmetry determination                      0.100000E-05
 BRILLOUIN| K-Point point group symmetrization                               OFF
 BRILLOUIN| Wavefunction type                                            COMPLEX
 BRILLOUIN| List of Kpoints [2 Pi/Bohr]                                        8
 BRILLOUIN| Number           Weight            X              Y              Z
 BRILLOUIN|     1           0.12500       -0.37500       -0.37500        0.00000
 BRILLOUIN|     2           0.12500       -0.37500       -0.12500        0.00000
 BRILLOUIN|     3           0.12500       -0.37500        0.12500        0.00000
 BRILLOUIN|     4           0.12500       -0.37500        0.37500        0.00000
 BRILLOUIN|     5           0.12500       -0.12500       -0.37500        0.00000
 BRILLOUIN|     6           0.12500       -0.12500       -0.12500        0.00000
 BRILLOUIN|     7           0.12500       -0.12500        0.12500        0.00000
 BRILLOUIN|     8           0.12500       -0.12500        0.37500        0.00000
 *******************************************************************************

 *******************************************************************************
 *******************************************************************************
 **                                                                           **
 **     #####                         ##              ##                      **
 **    ##   ##            ##          ##              ##                      **
 **   ##     ##                       ##            ######                    **
 **   ##     ##  ##   ##  ##   #####  ##  ##   ####   ##    #####    #####    **
 **   ##     ##  ##   ##  ##  ##      ## ##   ##      ##   ##   ##  ##   ##   **
 **   ##  ## ##  ##   ##  ##  ##      ####     ###    ##   ######   ######    **
 **    ##  ###   ##   ##  ##  ##      ## ##      ##   ##   ##       ##        **
 **     #######   #####   ##   #####  ##  ##  ####    ##    #####   ##        **
 **           ##                                                    ##        **
 **                                                                           **
 **                                                ... make the atoms dance   **
 **                                                                           **
 **            Copyright (C) by CP2K developers group (2000-2023)             **
 **                      J. Chem. Phys. 152, 194103 (2020)                    **
 **                                                                           **
 *******************************************************************************

 *** WARNING in qs_environment.F:1456 :: Number of electrons will be ***
 *** overwritten by NELEC_ALPHA and NELEC_BETA, multiplicity will be ***
 *** ignored.                                                        ***

 Number of electrons should be                                               576
 Sum of NELEC_ALPHA and NELEC_BETA is                                    576.000

 *** WARNING in qs_environment.F:1488 :: NELEC_ALPHA is not an integer, ***
 *** many features will not be supported.                               ***


 *** WARNING in qs_environment.F:1500 :: NELEC_BETA is not an integer, ***
 *** many features will not be supported.                              ***


 *** WARNING in qs_environment.F:1532 :: More ADDED_MOs requested for beta ***
 *** spin than available.                                                  ***


 *** WARNING in qs_environment.F:1548 :: More added MOs requested than     ***
 *** available. The full set of unoccupied MOs will be used. Use           ***
 *** 'ADDED_MOS -1' to always use all available MOs and to get rid of this ***
 *** warning.                                                              ***


 DFT| Spin unrestricted (spin-polarized) Kohn-Sham calculation               UKS
 DFT| Multiplicity                                                             1
 DFT| Number of spin states                                                    2
 DFT| Charge                                                                   0
 DFT| Self-interaction correction (SIC)                                       NO
 DFT| Cutoffs: density                                              1.000000E-10
 DFT|          gradient                                             1.000000E-10
 DFT|          tau                                                  1.000000E-10
 DFT|          cutoff_smoothing_range                               0.000000E+00
 DFT| XC density smoothing                                                  NONE
 DFT| XC derivatives                                                          PW

 FUNCTIONAL| PBE:
 FUNCTIONAL| J.P.Perdew, K.Burke, M.Ernzerhof, Phys. Rev. Letter, vol. 77, n 18,
 FUNCTIONAL|  pp. 3865-3868, (1996){spin polarized}                             

 vdW POTENTIAL|                                                   Pair Potential
 vdW POTENTIAL|          DFT-D3 (Version 3.1)
 vdW POTENTIAL|          Potential Form: S. Grimme et al, JCP 132: 154104 (2010)
 vdW POTENTIAL|          Zero Damping
 vdW POTENTIAL|          Cutoff Radius [Bohr]:                             20.00
 vdW POTENTIAL|          s6 Scaling Factor:                               1.0000
 vdW POTENTIAL|          sr6 Scaling Factor:                              1.2170
 vdW POTENTIAL|          s8 Scaling Factor:                               0.7220
 vdW POTENTIAL|          Cutoff for CN calculation:                   0.1000E-05

 QS| Method:                                                                 GPW
 QS| Density plane wave grid type                        NON-SPHERICAL FULLSPACE
 QS| Number of grid levels:                                                    5
 QS| Density cutoff [a.u.]:                                                300.0
 QS| Multi grid cutoff [a.u.]: 1) grid level                               300.0
 QS|                           2) grid level                               100.0
 QS|                           3) grid level                                33.3
 QS|                           4) grid level                                11.1
 QS|                           5) grid level                                 3.7
 QS| Grid level progression factor:                                          3.0
 QS| Relative density cutoff [a.u.]:                                        30.0
 QS| Interaction thresholds: eps_pgf_orb:                                1.0E-06
 QS|                         eps_filter_matrix:                          0.0E+00
 QS|                         eps_core_charge:                            1.0E-14
 QS|                         eps_rho_gspace:                             1.0E-12
 QS|                         eps_rho_rspace:                             1.0E-12
 QS|                         eps_gvg_rspace:                             1.0E-06
 QS|                         eps_ppl:                                    1.0E-02
 QS|                         eps_ppnl:                                   1.0E-08


 ATOMIC KIND INFORMATION

  1. Atomic kind: Ni_i                                  Number of atoms:      16

     Orbital Basis Set                                        DZVP-MOLOPT-SR-GTH

       Number of orbital shell sets:                                           1
       Number of orbital shells:                                               8
       Number of primitive Cartesian functions:                                6
       Number of Cartesian basis functions:                                   31
       Number of spherical basis functions:                                   26
       Norm type:                                                              2

       Normalised Cartesian orbitals:

                        Set   Shell   Orbital            Exponent    Coefficient

                          1       1    2s               10.077428      -0.684558
                                                         5.847736      -0.844524
                                                         2.494033       1.088856
                                                         0.988355       0.395503
                                                         0.344978       0.010224
                                                         0.099466      -0.003250

                          1       2    3s               10.077428       0.096747
                                                         5.847736       0.162504
                                                         2.494033      -0.297192
                                                         0.988355      -0.319752
                                                         0.344978       0.088318
                                                         0.099466       0.118587

                          1       3    4s               10.077428       0.036437
                                                         5.847736      -0.381480
                                                         2.494033       0.003759
                                                         0.988355      -1.048256
                                                         0.344978       0.855825
                                                         0.099466      -0.176350

                          1       4    3px              10.077428      -3.133913
                                                         5.847736       3.027656
                                                         2.494033       2.353227
                                                         0.988355       0.554184
                                                         0.344978       0.019462
                                                         0.099466      -0.000291
                          1       4    3py              10.077428      -3.133913
                                                         5.847736       3.027656
                                                         2.494033       2.353227
                                                         0.988355       0.554184
                                                         0.344978       0.019462
                                                         0.099466      -0.000291
                          1       4    3pz              10.077428      -3.133913
                                                         5.847736       3.027656
                                                         2.494033       2.353227
                                                         0.988355       0.554184
                                                         0.344978       0.019462
                                                         0.099466      -0.000291

                          1       5    4px              10.077428      -0.112729
                                                         5.847736      -0.114008
                                                         2.494033      -0.347303
                                                         0.988355      -0.110323
                                                         0.344978       0.154096
                                                         0.099466       0.058386
                          1       5    4py              10.077428      -0.112729
                                                         5.847736      -0.114008
                                                         2.494033      -0.347303
                                                         0.988355      -0.110323
                                                         0.344978       0.154096
                                                         0.099466       0.058386
                          1       5    4pz              10.077428      -0.112729
                                                         5.847736      -0.114008
                                                         2.494033      -0.347303
                                                         0.988355      -0.110323
                                                         0.344978       0.154096
                                                         0.099466       0.058386

                          1       6    4dx2             10.077428       8.232726
                                                         5.847736       9.105758
                                                         2.494033       2.849835
                                                         0.988355       0.554319
                                                         0.344978       0.067245
                                                         0.099466       0.001940
                          1       6    4dxy             10.077428      14.259500
                                                         5.847736      15.771636
                                                         2.494033       4.936060
                                                         0.988355       0.960109
                                                         0.344978       0.116472
                                                         0.099466       0.003360
                          1       6    4dxz             10.077428      14.259500
                                                         5.847736      15.771636
                                                         2.494033       4.936060
                                                         0.988355       0.960109
                                                         0.344978       0.116472
                                                         0.099466       0.003360
                          1       6    4dy2             10.077428       8.232726
                                                         5.847736       9.105758
                                                         2.494033       2.849835
                                                         0.988355       0.554319
                                                         0.344978       0.067245
                                                         0.099466       0.001940
                          1       6    4dyz             10.077428      14.259500
                                                         5.847736      15.771636
                                                         2.494033       4.936060
                                                         0.988355       0.960109
                                                         0.344978       0.116472
                                                         0.099466       0.003360
                          1       6    4dz2             10.077428       8.232726
                                                         5.847736       9.105758
                                                         2.494033       2.849835
                                                         0.988355       0.554319
                                                         0.344978       0.067245
                                                         0.099466       0.001940

                          1       7    5dx2             10.077428      -2.715373
                                                         5.847736      -4.020640
                                                         2.494033      -1.397569
                                                         0.988355      -0.076143
                                                         0.344978       0.033435
                                                         0.099466       0.026032
                          1       7    5dxy             10.077428      -4.703164
                                                         5.847736      -6.963952
                                                         2.494033      -2.420661
                                                         0.988355      -0.131883
                                                         0.344978       0.057911
                                                         0.099466       0.045088
                          1       7    5dxz             10.077428      -4.703164
                                                         5.847736      -6.963952
                                                         2.494033      -2.420661
                                                         0.988355      -0.131883
                                                         0.344978       0.057911
                                                         0.099466       0.045088
                          1       7    5dy2             10.077428      -2.715373
                                                         5.847736      -4.020640
                                                         2.494033      -1.397569
                                                         0.988355      -0.076143
                                                         0.344978       0.033435
                                                         0.099466       0.026032
                          1       7    5dyz             10.077428      -4.703164
                                                         5.847736      -6.963952
                                                         2.494033      -2.420661
                                                         0.988355      -0.131883
                                                         0.344978       0.057911
                                                         0.099466       0.045088
                          1       7    5dz2             10.077428      -2.715373
                                                         5.847736      -4.020640
                                                         2.494033      -1.397569
                                                         0.988355      -0.076143
                                                         0.344978       0.033435
                                                         0.099466       0.026032

                          1       8    5fx3             10.077428      -0.467694
                                                         5.847736       0.618100
                                                         2.494033       0.066069
                                                         0.988355       0.262898
                                                         0.344978       0.004720
                                                         0.099466       0.007748
                          1       8    5fx2y            10.077428      -1.045795
                                                         5.847736       1.382114
                                                         2.494033       0.147734
                                                         0.988355       0.587859
                                                         0.344978       0.010555
                                                         0.099466       0.017325
                          1       8    5fx2z            10.077428      -1.045795
                                                         5.847736       1.382114
                                                         2.494033       0.147734
                                                         0.988355       0.587859
                                                         0.344978       0.010555
                                                         0.099466       0.017325
                          1       8    5fxy2            10.077428      -1.045795
                                                         5.847736       1.382114
                                                         2.494033       0.147734
                                                         0.988355       0.587859
                                                         0.344978       0.010555
                                                         0.099466       0.017325
                          1       8    5fxyz            10.077428      -1.811371
                                                         5.847736       2.393892
                                                         2.494033       0.255883
                                                         0.988355       1.018201
                                                         0.344978       0.018282
                                                         0.099466       0.030008
                          1       8    5fxz2            10.077428      -1.045795
                                                         5.847736       1.382114
                                                         2.494033       0.147734
                                                         0.988355       0.587859
                                                         0.344978       0.010555
                                                         0.099466       0.017325
                          1       8    5fy3             10.077428      -0.467694
                                                         5.847736       0.618100
                                                         2.494033       0.066069
                                                         0.988355       0.262898
                                                         0.344978       0.004720
                                                         0.099466       0.007748
                          1       8    5fy2z            10.077428      -1.045795
                                                         5.847736       1.382114
                                                         2.494033       0.147734
                                                         0.988355       0.587859
                                                         0.344978       0.010555
                                                         0.099466       0.017325
                          1       8    5fyz2            10.077428      -1.045795
                                                         5.847736       1.382114
                                                         2.494033       0.147734
                                                         0.988355       0.587859
                                                         0.344978       0.010555
                                                         0.099466       0.017325
                          1       8    5fz3             10.077428      -0.467694
                                                         5.847736       0.618100
                                                         2.494033       0.066069
                                                         0.988355       0.262898
                                                         0.344978       0.004720
                                                         0.099466       0.007748

       Atomic covalent radius [Angstrom]:                                  1.150

       Atomic van der Waals radius [Angstrom]:                             1.630

     GTH Potential information for                                   GTH-PBE-q18

       Description:                       Goedecker-Teter-Hutter pseudopotential
                                           Goedecker et al., PRB 54, 1703 (1996)
                                          Hartwigsen et al., PRB 58, 3641 (1998)
                                                      Krack, TCA 114, 145 (2005)

       Gaussian exponent of the core charge distribution:               4.081633
       Electronic configuration (s p d ...):                           4   6   8

       Parameters of the local part of the GTH pseudopotential:

                          rloc        C1          C2          C3          C4
                        0.350000    2.102166    0.648484

       Parameters of the non-local part of the GTH pseudopotential:

                   l      r(l)      h(i,j,l)

                   0    0.261295    0.622658    9.970227
                                    9.970227  -12.871507
                   1    0.224253  -11.142708   12.429566
                                   12.429566  -14.706861
                   2    0.215348  -12.628146

  2. Atomic kind: Ni_b                                  Number of atoms:      16

     Orbital Basis Set                                        DZVP-MOLOPT-SR-GTH

       Number of orbital shell sets:                                           1
       Number of orbital shells:                                               8
       Number of primitive Cartesian functions:                                6
       Number of Cartesian basis functions:                                   31
       Number of spherical basis functions:                                   26
       Norm type:                                                              2

       Normalised Cartesian orbitals:

                        Set   Shell   Orbital            Exponent    Coefficient

                          1       1    2s               10.077428      -0.684558
                                                         5.847736      -0.844524
                                                         2.494033       1.088856
                                                         0.988355       0.395503
                                                         0.344978       0.010224
                                                         0.099466      -0.003250

                          1       2    3s               10.077428       0.096747
                                                         5.847736       0.162504
                                                         2.494033      -0.297192
                                                         0.988355      -0.319752
                                                         0.344978       0.088318
                                                         0.099466       0.118587

                          1       3    4s               10.077428       0.036437
                                                         5.847736      -0.381480
                                                         2.494033       0.003759
                                                         0.988355      -1.048256
                                                         0.344978       0.855825
                                                         0.099466      -0.176350

                          1       4    3px              10.077428      -3.133913
                                                         5.847736       3.027656
                                                         2.494033       2.353227
                                                         0.988355       0.554184
                                                         0.344978       0.019462
                                                         0.099466      -0.000291
                          1       4    3py              10.077428      -3.133913
                                                         5.847736       3.027656
                                                         2.494033       2.353227
                                                         0.988355       0.554184
                                                         0.344978       0.019462
                                                         0.099466      -0.000291
                          1       4    3pz              10.077428      -3.133913
                                                         5.847736       3.027656
                                                         2.494033       2.353227
                                                         0.988355       0.554184
                                                         0.344978       0.019462
                                                         0.099466      -0.000291

                          1       5    4px              10.077428      -0.112729
                                                         5.847736      -0.114008
                                                         2.494033      -0.347303
                                                         0.988355      -0.110323
                                                         0.344978       0.154096
                                                         0.099466       0.058386
                          1       5    4py              10.077428      -0.112729
                                                         5.847736      -0.114008
                                                         2.494033      -0.347303
                                                         0.988355      -0.110323
                                                         0.344978       0.154096
                                                         0.099466       0.058386
                          1       5    4pz              10.077428      -0.112729
                                                         5.847736      -0.114008
                                                         2.494033      -0.347303
                                                         0.988355      -0.110323
                                                         0.344978       0.154096
                                                         0.099466       0.058386

                          1       6    4dx2             10.077428       8.232726
                                                         5.847736       9.105758
                                                         2.494033       2.849835
                                                         0.988355       0.554319
                                                         0.344978       0.067245
                                                         0.099466       0.001940
                          1       6    4dxy             10.077428      14.259500
                                                         5.847736      15.771636
                                                         2.494033       4.936060
                                                         0.988355       0.960109
                                                         0.344978       0.116472
                                                         0.099466       0.003360
                          1       6    4dxz             10.077428      14.259500
                                                         5.847736      15.771636
                                                         2.494033       4.936060
                                                         0.988355       0.960109
                                                         0.344978       0.116472
                                                         0.099466       0.003360
                          1       6    4dy2             10.077428       8.232726
                                                         5.847736       9.105758
                                                         2.494033       2.849835
                                                         0.988355       0.554319
                                                         0.344978       0.067245
                                                         0.099466       0.001940
                          1       6    4dyz             10.077428      14.259500
                                                         5.847736      15.771636
                                                         2.494033       4.936060
                                                         0.988355       0.960109
                                                         0.344978       0.116472
                                                         0.099466       0.003360
                          1       6    4dz2             10.077428       8.232726
                                                         5.847736       9.105758
                                                         2.494033       2.849835
                                                         0.988355       0.554319
                                                         0.344978       0.067245
                                                         0.099466       0.001940

                          1       7    5dx2             10.077428      -2.715373
                                                         5.847736      -4.020640
                                                         2.494033      -1.397569
                                                         0.988355      -0.076143
                                                         0.344978       0.033435
                                                         0.099466       0.026032
                          1       7    5dxy             10.077428      -4.703164
                                                         5.847736      -6.963952
                                                         2.494033      -2.420661
                                                         0.988355      -0.131883
                                                         0.344978       0.057911
                                                         0.099466       0.045088
                          1       7    5dxz             10.077428      -4.703164
                                                         5.847736      -6.963952
                                                         2.494033      -2.420661
                                                         0.988355      -0.131883
                                                         0.344978       0.057911
                                                         0.099466       0.045088
                          1       7    5dy2             10.077428      -2.715373
                                                         5.847736      -4.020640
                                                         2.494033      -1.397569
                                                         0.988355      -0.076143
                                                         0.344978       0.033435
                                                         0.099466       0.026032
                          1       7    5dyz             10.077428      -4.703164
                                                         5.847736      -6.963952
                                                         2.494033      -2.420661
                                                         0.988355      -0.131883
                                                         0.344978       0.057911
                                                         0.099466       0.045088
                          1       7    5dz2             10.077428      -2.715373
                                                         5.847736      -4.020640
                                                         2.494033      -1.397569
                                                         0.988355      -0.076143
                                                         0.344978       0.033435
                                                         0.099466       0.026032

                          1       8    5fx3             10.077428      -0.467694
                                                         5.847736       0.618100
                                                         2.494033       0.066069
                                                         0.988355       0.262898
                                                         0.344978       0.004720
                                                         0.099466       0.007748
                          1       8    5fx2y            10.077428      -1.045795
                                                         5.847736       1.382114
                                                         2.494033       0.147734
                                                         0.988355       0.587859
                                                         0.344978       0.010555
                                                         0.099466       0.017325
                          1       8    5fx2z            10.077428      -1.045795
                                                         5.847736       1.382114
                                                         2.494033       0.147734
                                                         0.988355       0.587859
                                                         0.344978       0.010555
                                                         0.099466       0.017325
                          1       8    5fxy2            10.077428      -1.045795
                                                         5.847736       1.382114
                                                         2.494033       0.147734
                                                         0.988355       0.587859
                                                         0.344978       0.010555
                                                         0.099466       0.017325
                          1       8    5fxyz            10.077428      -1.811371
                                                         5.847736       2.393892
                                                         2.494033       0.255883
                                                         0.988355       1.018201
                                                         0.344978       0.018282
                                                         0.099466       0.030008
                          1       8    5fxz2            10.077428      -1.045795
                                                         5.847736       1.382114
                                                         2.494033       0.147734
                                                         0.988355       0.587859
                                                         0.344978       0.010555
                                                         0.099466       0.017325
                          1       8    5fy3             10.077428      -0.467694
                                                         5.847736       0.618100
                                                         2.494033       0.066069
                                                         0.988355       0.262898
                                                         0.344978       0.004720
                                                         0.099466       0.007748
                          1       8    5fy2z            10.077428      -1.045795
                                                         5.847736       1.382114
                                                         2.494033       0.147734
                                                         0.988355       0.587859
                                                         0.344978       0.010555
                                                         0.099466       0.017325
                          1       8    5fyz2            10.077428      -1.045795
                                                         5.847736       1.382114
                                                         2.494033       0.147734
                                                         0.988355       0.587859
                                                         0.344978       0.010555
                                                         0.099466       0.017325
                          1       8    5fz3             10.077428      -0.467694
                                                         5.847736       0.618100
                                                         2.494033       0.066069
                                                         0.988355       0.262898
                                                         0.344978       0.004720
                                                         0.099466       0.007748

       Atomic covalent radius [Angstrom]:                                  1.150

       Atomic van der Waals radius [Angstrom]:                             1.630

     GTH Potential information for                                   GTH-PBE-q18

       Description:                       Goedecker-Teter-Hutter pseudopotential
                                           Goedecker et al., PRB 54, 1703 (1996)
                                          Hartwigsen et al., PRB 58, 3641 (1998)
                                                      Krack, TCA 114, 145 (2005)

       Gaussian exponent of the core charge distribution:               4.081633
       Electronic configuration (s p d ...):                           4   6   8

       Parameters of the local part of the GTH pseudopotential:

                          rloc        C1          C2          C3          C4
                        0.350000    2.102166    0.648484

       Parameters of the non-local part of the GTH pseudopotential:

                   l      r(l)      h(i,j,l)

                   0    0.261295    0.622658    9.970227
                                    9.970227  -12.871507
                   1    0.224253  -11.142708   12.429566
                                   12.429566  -14.706861
                   2    0.215348  -12.628146


 MOLECULE KIND INFORMATION


 All atoms are their own molecule, skipping detailed information


 TOTAL NUMBERS AND MAXIMUM NUMBERS

  Total number of            - Atomic kinds:                                   2
                             - Atoms:                                         32
                             - Shell sets:                                    32
                             - Shells:                                       256
                             - Primitive Cartesian functions:                192
                             - Cartesian basis functions:                    992
                             - Spherical basis functions:                    832

  Maximum angular momentum of- Orbital basis functions:                        3
                             - Local part of the GTH pseudopotential:          2
                             - Non-local part of the GTH pseudopotential:      3


 MODULE QUICKSTEP: ATOMIC COORDINATES IN ANGSTROM

   Atom Kind Element         X             Y             Z       Z(eff)     Mass
      1    1 Ni   28      0.876298      0.876298      7.370500  18.0000  58.6934
      2    1 Ni   28      0.876298      4.382298      7.370500  18.0000  58.6934
      3    1 Ni   28      2.629298      2.629298      7.370500  18.0000  58.6934
      4    1 Ni   28      2.629298      6.135298      7.370500  18.0000  58.6934
      5    1 Ni   28      4.382298      0.876298      7.370500  18.0000  58.6934
      6    1 Ni   28      4.382298      4.382298      7.370500  18.0000  58.6934
      7    1 Ni   28      6.135298      2.629298      7.370500  18.0000  58.6934
      8    1 Ni   28      6.135298      6.135298      7.370500  18.0000  58.6934
      9    2 Ni   28      0.876298      2.629298      9.123500  18.0000  58.6934
     10    2 Ni   28      0.876298      6.135298      9.123500  18.0000  58.6934
     11    2 Ni   28      2.629298      0.876298      9.123500  18.0000  58.6934
     12    2 Ni   28      2.629298      4.382298      9.123500  18.0000  58.6934
     13    2 Ni   28      4.382298      2.629298      9.123500  18.0000  58.6934
     14    2 Ni   28      4.382298      6.135298      9.123500  18.0000  58.6934
     15    2 Ni   28      6.135298      0.876298      9.123500  18.0000  58.6934
     16    2 Ni   28      6.135298      4.382298      9.123500  18.0000  58.6934
     17    2 Ni   28      0.876298      0.876298     10.876500  18.0000  58.6934
     18    2 Ni   28      0.876298      4.382298     10.876500  18.0000  58.6934
     19    2 Ni   28      2.629298      2.629298     10.876500  18.0000  58.6934
     20    2 Ni   28      2.629298      6.135298     10.876500  18.0000  58.6934
     21    2 Ni   28      4.382298      0.876298     10.876500  18.0000  58.6934
     22    2 Ni   28      4.382298      4.382298     10.876500  18.0000  58.6934
     23    2 Ni   28      6.135298      2.629298     10.876500  18.0000  58.6934
     24    2 Ni   28      6.135298      6.135298     10.876500  18.0000  58.6934
     25    1 Ni   28      0.876298      2.629298     12.629500  18.0000  58.6934
     26    1 Ni   28      0.876298      6.135298     12.629500  18.0000  58.6934
     27    1 Ni   28      2.629298      0.876298     12.629500  18.0000  58.6934
     28    1 Ni   28      2.629298      4.382298     12.629500  18.0000  58.6934
     29    1 Ni   28      4.382298      2.629298     12.629500  18.0000  58.6934
     30    1 Ni   28      4.382298      6.135298     12.629500  18.0000  58.6934
     31    1 Ni   28      6.135298      0.876298     12.629500  18.0000  58.6934
     32    1 Ni   28      6.135298      4.382298     12.629500  18.0000  58.6934



 SCF PARAMETERS         Density guess:                                    ATOMIC
                        --------------------------------------------------------
                        max_scf:                                             500
                        max_scf_history:                                       0
                        max_diis:                                              4
                        --------------------------------------------------------
                        eps_scf:                                        5.00E-04
                        eps_scf_history:                                0.00E+00
                        eps_diis:                                       1.00E-01
                        eps_eigval:                                     1.00E-05
                        --------------------------------------------------------
                        level_shift [a.u.]:                             0.000000
                        added MOs                                       534  553
                        --------------------------------------------------------
                        Mixing method:                            BROYDEN_MIXING
                                                charge density mixing in g-space
                        --------------------------------------------------------
                        Smear method:                                FERMI_DIRAC
                        Electronic temperature [K]:                       2000.0
                        Electronic temperature [a.u.]:                  6.33E-03
                        Accuracy threshold:                             1.00E-10
                        --------------------------------------------------------
                        No outer SCF

 PW_GRID| Information for grid number                                          1
 PW_GRID| Grid distributed over                                   128 processors
 PW_GRID| Real space group dimensions                                     8   16
 PW_GRID| the grid is blocked:                                               YES
 PW_GRID| Cutoff [a.u.]                                                    300.0
 PW_GRID| spherical cutoff:                                                   NO
 PW_GRID|   Bounds   1            -54      53                Points:         108
 PW_GRID|   Bounds   2            -54      53                Points:         108
 PW_GRID|   Bounds   3           -150     149                Points:         300
 PW_GRID| Volume element (a.u.^3)  0.1896E-02     Volume (a.u.^3)      6635.2971
 PW_GRID| Grid span                                                    FULLSPACE
 PW_GRID|   Distribution                         Average         Max         Min
 PW_GRID|   G-Vectors                            27337.5       28728       25272
 PW_GRID|   G-Rays                                 253.1         266         234
 PW_GRID|   Real Space Points                    27337.5       28728       25272

 PW_GRID| Information for grid number                                          2
 PW_GRID| Number of the reference grid                                         1
 PW_GRID| Grid distributed over                                   128 processors
 PW_GRID| Real space group dimensions                                     8   16
 PW_GRID| the grid is blocked:                                                NO
 PW_GRID| Cutoff [a.u.]                                                    100.0
 PW_GRID| spherical cutoff:                                                   NO
 PW_GRID|   Bounds   1            -30      29                Points:          60
 PW_GRID|   Bounds   2            -30      29                Points:          60
 PW_GRID|   Bounds   3            -90      89                Points:         180
 PW_GRID| Volume element (a.u.^3)  0.1024E-01     Volume (a.u.^3)      6635.2971
 PW_GRID| Grid span                                                    FULLSPACE
 PW_GRID|   Distribution                         Average         Max         Min
 PW_GRID|   G-Vectors                             5062.5       15960           0
 PW_GRID|   G-Rays                                  84.4         266           0
 PW_GRID|   Real Space Points                     5062.5        5760        3780

 PW_GRID| Information for grid number                                          3
 PW_GRID| Number of the reference grid                                         1
 PW_GRID| Grid distributed over                                   128 processors
 PW_GRID| Real space group dimensions                                     8   16
 PW_GRID| the grid is blocked:                                                NO
 PW_GRID| Cutoff [a.u.]                                                     33.3
 PW_GRID| spherical cutoff:                                                   NO
 PW_GRID|   Bounds   1            -18      17                Points:          36
 PW_GRID|   Bounds   2            -18      17                Points:          36
 PW_GRID|   Bounds   3            -50      49                Points:         100
 PW_GRID| Volume element (a.u.^3)  0.5120E-01     Volume (a.u.^3)      6635.2971
 PW_GRID| Grid span                                                    FULLSPACE
 PW_GRID|   Distribution                         Average         Max         Min
 PW_GRID|   G-Vectors                             1012.5        9576           0
 PW_GRID|   G-Rays                                  28.1         266           0
 PW_GRID|   Real Space Points                     1012.5        1500         800

 PW_GRID| Information for grid number                                          4
 PW_GRID| Number of the reference grid                                         1
 PW_GRID| Grid distributed over                                   128 processors
 PW_GRID| Real space group dimensions                                     8   16
 PW_GRID| the grid is blocked:                                                NO
 PW_GRID| Cutoff [a.u.]                                                     11.1
 PW_GRID| spherical cutoff:                                                   NO
 PW_GRID|   Bounds   1            -10       9                Points:          20
 PW_GRID|   Bounds   2            -10       9                Points:          20
 PW_GRID|   Bounds   3            -30      29                Points:          60
 PW_GRID| Volume element (a.u.^3)  0.2765         Volume (a.u.^3)      6635.2971
 PW_GRID| Grid span                                                    FULLSPACE
 PW_GRID|   Distribution                         Average         Max         Min
 PW_GRID|   G-Vectors                              187.5        3800           0
 PW_GRID|   G-Rays                                   9.4         190           0
 PW_GRID|   Real Space Points                      187.5         360         120

 PW_GRID| Information for grid number                                          5
 PW_GRID| Number of the reference grid                                         1
 PW_GRID| Grid distributed over                                   128 processors
 PW_GRID| Real space group dimensions                                     8   16
 PW_GRID| the grid is blocked:                                                NO
 PW_GRID| Cutoff [a.u.]                                                      3.7
 PW_GRID| spherical cutoff:                                                   NO
 PW_GRID|   Bounds   1             -6       5                Points:          12
 PW_GRID|   Bounds   2             -6       5                Points:          12
 PW_GRID|   Bounds   3            -18      17                Points:          36
 PW_GRID| Volume element (a.u.^3)   1.280         Volume (a.u.^3)      6635.2971
 PW_GRID| Grid span                                                    FULLSPACE
 PW_GRID|   Distribution                         Average         Max         Min
 PW_GRID|   G-Vectors                               40.5        1296           0
 PW_GRID|   G-Rays                                   3.4         108           0
 PW_GRID|   Real Space Points                       40.5          72           0

 POISSON| Solver                                                        PERIODIC
 POISSON| Periodicity                                                        XYZ

 RS_GRID| Information for grid number                                          1
 RS_GRID|   Bounds   1            -54      53                Points:         108
 RS_GRID|   Bounds   2            -54      53                Points:         108
 RS_GRID|   Bounds   3           -150     149                Points:         300
 RS_GRID| Real space distribution over                                  8 groups
 RS_GRID| Real space distribution along direction                              2
 RS_GRID| Border size                                                         28
 RS_GRID| Real space distribution over                                 16 groups
 RS_GRID| Real space distribution along direction                              3
 RS_GRID| Border size                                                         28
 RS_GRID|   Distribution                         Average         Max         Min
 RS_GRID|   Planes                                  69.5          70          69
 RS_GRID|   Distribution                         Average         Max         Min
 RS_GRID|   Planes                                  74.8          75          74

 RS_GRID| Information for grid number                                          2
 RS_GRID|   Bounds   1            -30      29                Points:          60
 RS_GRID|   Bounds   2            -30      29                Points:          60
 RS_GRID|   Bounds   3            -90      89                Points:         180
 RS_GRID| Real space fully replicated
 RS_GRID| Group size                                                           1

 RS_GRID| Information for grid number                                          3
 RS_GRID|   Bounds   1            -18      17                Points:          36
 RS_GRID|   Bounds   2            -18      17                Points:          36
 RS_GRID|   Bounds   3            -50      49                Points:         100
 RS_GRID| Real space fully replicated
 RS_GRID| Group size                                                           1

 RS_GRID| Information for grid number                                          4
 RS_GRID|   Bounds   1            -10       9                Points:          20
 RS_GRID|   Bounds   2            -10       9                Points:          20
 RS_GRID|   Bounds   3            -30      29                Points:          60
 RS_GRID| Real space fully replicated
 RS_GRID| Group size                                                           1

 RS_GRID| Information for grid number                                          5
 RS_GRID|   Bounds   1             -6       5                Points:          12
 RS_GRID|   Bounds   2             -6       5                Points:          12
 RS_GRID|   Bounds   3            -18      17                Points:          36
 RS_GRID| Real space fully replicated
 RS_GRID| Group size                                                           1

 Spin 1

 Number of electrons:                                                        297.600
 Number of occupied orbitals:                                                298
 Number of molecular orbitals:                                               832

 Spin 2

 Number of electrons:                                                        278.400
 Number of occupied orbitals:                                                279
 Number of molecular orbitals:                                               832

 Number of orbital functions:                                                832
 Number of independent orbital functions:                                    832

 Extrapolation method: initial_guess

 Atomic guess: The first density matrix is obtained in terms of atomic orbitals
               and electronic configurations assigned to each atomic kind

 Guess for atomic kind: Ni_i

 Electronic structure
    Total number of core electrons                                         10.00
    Total number of valence electrons                                      18.00
    Total number of electrons                                              28.00
    Multiplicity                                                         doublet
    Alpha Electrons
    S   [  1.00  1.00] 1.00  1.00
    P   [  3.00] 3.00
    D      4.35
    Beta Electrons
    S   [  1.00  1.00] 1.00  1.00
    P   [  3.00] 3.00
    D      3.65


 *******************************************************************************
                  Iteration          Convergence                     Energy [au]
 *******************************************************************************
                          1         1.51729                    -167.067424631347
                          2         15.3902                    -156.642654318634
                          3         2.33433                    -168.319355313541
                          4        0.206730                    -168.609905008081
                          5        0.814175E-01                -168.612873080494
                          6        0.173318E-01                -168.613470181066
                          7        0.290432E-02                -168.613543571401
                          8        0.311825E-02                -168.613543401474
                          9        0.179670E-03                -168.613544404477
                         10        0.169386E-02                -168.613544207811
                         11        0.473341E-03                -168.613544360253
                         12        0.165417E-03                -168.613544400419
                         13        0.162622E-03                -168.613544401489
                         14        0.158325E-03                -168.613544403900
                         15        0.177007E-03                -168.613544402509
                         16        0.138916E-03                -168.613544404900
                         17        0.934549E-04                -168.613544406149
                         18        0.119916E-03                -168.613544405789
                         19        0.131607E-03                -168.613544405591
                         20        0.169309E-03                -168.613544404773
                         21        0.551337E-04                -168.613544406656
                         22        0.382664E-04                -168.613544406759
                         23        0.378942E-04                -168.613544406765
                         24        0.381089E-04                -168.613544406765
                         25        0.390835E-04                -168.613544406759
                         26        0.308614E-04                -168.613544406841
                         27        0.205044E-04                -168.613544406892
                         28        0.200942E-04                -168.613544406893
                         29        0.199375E-04                -168.613544406893
                         30        0.200198E-04                -168.613544406894
                         31        0.161325E-04                -168.613544406903
                         32        0.330614E-05                -168.613544406925
                         33        0.238713E-05                -168.613544406926
                         34        0.265439E-05                -168.613544406926
                         35        0.277073E-05                -168.613544406926
                         36        0.335175E-05                -168.613544406926
                         37        0.148809E-05                -168.613544406927
                         38        0.133447E-05                -168.613544406927
                         39        0.918735E-06                -168.613544406927

 Energy components [Hartree]           Total Energy ::         -168.613544406927
                                        Band Energy ::          -26.569761966525
                                     Kinetic Energy ::           97.306723392622
                                   Potential Energy ::         -265.920267799548
                                      Virial (-V/T) ::            2.732804666812
                                        Core Energy ::         -299.567979157577
                                          XC Energy ::          -16.227189041387
                                     Coulomb Energy ::          147.181623792037
                       Total Pseudopotential Energy ::         -396.961043505191
                       Local Pseudopotential Energy ::         -362.648291121960
                    Nonlocal Pseudopotential Energy ::          -34.312752383230
                                        Confinement ::            0.863409549921

 Orbital energies  State     Spin  L     Occupation   Energy[a.u.]    Energy[eV]

                       1    alpha  0          1.000      -4.172666   -113.544030
                       2    alpha  0          1.000      -0.181431     -4.936983
                       1     beta  0          1.000      -4.140640   -112.672541
                       2     beta  0          1.000      -0.176372     -4.799339

                       1    alpha  1          3.000      -2.578739    -70.171064
                       1     beta  1          3.000      -2.547579    -69.323162

                       1    alpha  2          4.350      -0.327039     -8.899191
                       1     beta  2          3.650      -0.300569     -8.178887


 Total Electron Density at R=0:                                         0.030422

 Guess for atomic kind: Ni_b

 Electronic structure
    Total number of core electrons                                         10.00
    Total number of valence electrons                                      18.00
    Total number of electrons                                              28.00
    Multiplicity                                                         doublet
    Alpha Electrons
    S   [  1.00  1.00] 1.00  1.00
    P   [  3.00] 3.00
    D      4.25
    Beta Electrons
    S   [  1.00  1.00] 1.00  1.00
    P   [  3.00] 3.00
    D      3.75


 *******************************************************************************
                  Iteration          Convergence                     Energy [au]
 *******************************************************************************
                          1         1.51687                    -167.065012761055
                          2         14.9817                    -156.620431300845
                          3         2.25575                    -168.317311438693
                          4        0.189210                    -168.607926092750
                          5        0.708658E-01                -168.610773319290
                          6        0.122256E-01                -168.611238205502
                          7        0.598421E-02                -168.611272268995
                          8        0.528277E-02                -168.611272438110
                          9        0.104644E-02                -168.611275321653
                         10        0.260234E-02                -168.611274926630
                         11        0.975322E-03                -168.611275328217
                         12        0.161067E-03                -168.611275447773
                         13        0.147413E-03                -168.611275446839
                         14        0.115114E-03                -168.611275449434
                         15        0.167217E-03                -168.611275445436
                         16        0.255374E-04                -168.611275450531
                         17        0.418369E-04                -168.611275450414
                         18        0.393709E-04                -168.611275450477
                         19        0.239931E-04                -168.611275450542
                         20        0.173885E-04                -168.611275450557
                         21        0.851368E-05                -168.611275450578
                         22        0.849928E-05                -168.611275450580
                         23        0.544937E-05                -168.611275450584
                         24        0.540003E-05                -168.611275450586
                         25        0.613371E-05                -168.611275450584
                         26        0.311593E-06                -168.611275450588

 Energy components [Hartree]           Total Energy ::         -168.611275450588
                                        Band Energy ::          -26.568680144499
                                     Kinetic Energy ::           97.303659243130
                                   Potential Energy ::         -265.914934693718
                                      Virial (-V/T) ::            2.732835915546
                                        Core Energy ::         -299.566189183323
                                          XC Energy ::          -16.224592878785
                                     Coulomb Energy ::          147.179506611520
                       Total Pseudopotential Energy ::         -396.956189041778
                       Local Pseudopotential Energy ::         -362.645043136649
                    Nonlocal Pseudopotential Energy ::          -34.311145905129
                                        Confinement ::            0.863406153250

 Orbital energies  State     Spin  L     Occupation   Energy[a.u.]    Energy[eV]

                       1    alpha  0          1.000      -4.168335   -113.426177
                       2    alpha  0          1.000      -0.180730     -4.917906
                       1     beta  0          1.000      -4.145459   -112.803683
                       2     beta  0          1.000      -0.177117     -4.819606

                       1    alpha  1          3.000      -2.574525    -70.056390
                       1     beta  1          3.000      -2.552268    -69.450746

                       1    alpha  2          4.250      -0.323446     -8.801405
                       1     beta  2          3.750      -0.304537     -8.286881


 Total Electron Density at R=0:                                         0.030429

 Spin 1
 Re-scaling the density matrix to get the right number of electrons for spin 1
                  # Electrons              Trace(P)               Scaling factor
                        297.600             297.600                        1.000

 Spin 2
 Re-scaling the density matrix to get the right number of electrons for spin 2
                  # Electrons              Trace(P)               Scaling factor
                        278.400             278.400                        1.000


 SCF WAVEFUNCTION OPTIMIZATION

  Step     Update method      Time    Convergence         Total energy    Change
  ------------------------------------------------------------------------------
     1 NoMix/Diag. 0.40E-02    1.5     0.87318318     -5426.4441344177 -5.43E+03
     2 Broy./Diag. 0.40E-02    1.5     0.00091149     -5311.1893009185  1.15E+02
[...]
   125 Broy./Diag. 0.40E-02    1.5     0.00625446     -5418.3094262460 -1.41E-01
   126 Broy./Diag. 0.40E-02    1.5     0.00146650     -5418.6182014281 -3.09E-01
   127 Broy./Diag. 0.40E-02    1.5     0.00870886     -5418.2521294156  3.66E-01
   128 Broy./Diag. 0.40E-02    1.5     0.00908267     -5417.9331635117  3.19E-01
   129 Broy./Diag. 0.40E-02    1.5     0.00537178     -5418.0669204581 -1.34E-01
   130 Broy./Diag. 0.40E-02    1.5     0.00373015     -5418.0566178011  1.03E-02
   131 Broy./Diag. 0.40E-02    1.5     0.00324687     -5418.1477388911 -9.11E-02
   132 Broy./Diag. 0.40E-02    1.5     0.00352985     -5417.9033505418  2.44E-01
   133 Broy./Diag. 0.40E-02    1.5     0.01167012     -5417.8061756662  9.72E-02
   134 Broy./Diag. 0.40E-02    1.5     0.00220579     -5417.2527092202  5.53E-01
   135 Broy./Diag. 0.40E-02    1.5     0.00353361     -5416.9249390316  3.28E-01
   136 Broy./Diag. 0.40E-02    1.5     0.00232534     -5417.5839507804 -6.59E-01
   137 Broy./Diag. 0.40E-02    1.5     0.00483995     -5417.9097117290 -3.26E-01
   138 Broy./Diag. 0.40E-02    1.5     0.00727259     -5417.6774477876  2.32E-01
   139 Broy./Diag. 0.40E-02    1.5     0.00999661     -5417.9304779771 -2.53E-01
   140 Broy./Diag. 0.40E-02    1.5     0.00185834     -5417.9587679300 -2.83E-02
   141 Broy./Diag. 0.40E-02    1.5     0.00470935     -5418.1135826393 -1.55E-01
   142 Broy./Diag. 0.40E-02    1.5     0.00255748     -5418.0030379223  1.11E-01
   143 Broy./Diag. 0.40E-02    1.5     0.00412164     -5418.1069254971 -1.04E-01
   144 Broy./Diag. 0.40E-02    1.5     0.00220744     -5418.1456654110 -3.87E-02
   145 Broy./Diag. 0.40E-02    1.5     0.00298311     -5418.0685293976  7.71E-02
   146 Broy./Diag. 0.40E-02    1.5     0.00449913     -5418.1176217624 -4.91E-02
   147 Broy./Diag. 0.40E-02    1.5     0.00657861     -5418.0981502721  1.95E-02
   148 Broy./Diag. 0.40E-02    1.5     0.00619399     -5418.2750363777 -1.77E-01
   149 Broy./Diag. 0.40E-02    1.5     0.00214767     -5417.7631192364  5.12E-01
   150 Broy./Diag. 0.40E-02    1.5     0.01008075     -5417.7576447972  5.47E-03
   151 Broy./Diag. 0.40E-02    1.5     0.00316717     -5418.0563921492 -2.99E-01
   152 Broy./Diag. 0.40E-02    1.5     0.00344934     -5417.8926804895  1.64E-01
   153 Broy./Diag. 0.40E-02    1.5     0.00583633     -5417.8309527795  6.17E-02
   154 Broy./Diag. 0.40E-02    1.5     0.00976826     -5417.9787638858 -1.48E-01
   155 Broy./Diag. 0.40E-02    1.5     0.00350555     -5418.5316246964 -5.53E-01
   156 Broy./Diag. 0.40E-02    1.5     0.00089412     -5418.5989436881 -6.73E-02
   157 Broy./Diag. 0.40E-02    1.5     0.00663286     -5418.5372015955  6.17E-02
   158 Broy./Diag. 0.40E-02    1.5     0.00970989     -5418.0190383391  5.18E-01
   159 Broy./Diag. 0.40E-02    1.5     0.00992716     -5418.5639400647 -5.45E-01
   160 Broy./Diag. 0.40E-02    1.5     0.00137769     -5418.2472083426  3.17E-01
   161 Broy./Diag. 0.40E-02    1.5     0.00702753     -5418.0995457844  1.48E-01
   162 Broy./Diag. 0.40E-02    1.5     0.00110603     -5418.4628985922 -3.63E-01
   163 Broy./Diag. 0.40E-02    1.5     0.00093604     -5418.3579919858  1.05E-01
   164 Broy./Diag. 0.40E-02    1.5     0.00930602     -5418.4554214773 -9.74E-02
   165 Broy./Diag. 0.40E-02    1.5     0.00195621     -5418.3522098753  1.03E-01
   166 Broy./Diag. 0.40E-02    1.5     0.00171617     -5418.2910907284  6.11E-02
   167 Broy./Diag. 0.40E-02    1.5     0.00180552     -5418.4714474373 -1.80E-01
   168 Broy./Diag. 0.40E-02    1.5     0.00679183     -5418.3670274614  1.04E-01
   169 Broy./Diag. 0.40E-02    1.5     0.00902168     -5418.4808819973 -1.14E-01
   170 Broy./Diag. 0.40E-02    1.5     0.00203566     -5418.1496031968  3.31E-01
   171 Broy./Diag. 0.40E-02    1.5     0.00535483     -5418.1777617698 -2.82E-02
   172 Broy./Diag. 0.40E-02    1.5     0.00830747     -5418.3835965743 -2.06E-01
   173 Broy./Diag. 0.40E-02    1.5     0.00488669     -5418.0092047467  3.74E-01
   174 Broy./Diag. 0.40E-02    1.5     0.00500916     -5417.9223709064  8.68E-02
   175 Broy./Diag. 0.40E-02    1.5     0.00345214     -5418.2302570378 -3.08E-01
   176 Broy./Diag. 0.40E-02    1.5     0.00846431     -5418.2553728836 -2.51E-02
   177 Broy./Diag. 0.40E-02    1.5     0.00166712     -5417.9590134155  2.96E-01
   178 Broy./Diag. 0.40E-02    1.5     0.01426947     -5417.8729439652  8.61E-02
   179 Broy./Diag. 0.40E-02    1.5     0.00579294     -5417.5776888055  2.95E-01
   180 Broy./Diag. 0.40E-02    1.5     0.00748539     -5417.8206298841 -2.43E-01
   181 Broy./Diag. 0.40E-02    1.5     0.00643787     -5418.2524705051 -4.32E-01
   182 Broy./Diag. 0.40E-02    1.5     0.00980518     -5418.2642787422 -1.18E-02
   183 Broy./Diag. 0.40E-02    1.5     0.00489111     -5417.9996390753  2.65E-01
   184 Broy./Diag. 0.40E-02    1.5     0.00627379     -5418.1589056613 -1.59E-01
   185 Broy./Diag. 0.40E-02    1.5     0.00859398     -5417.9556184376  2.03E-01
   186 Broy./Diag. 0.40E-02    1.5     0.02994130     -5417.9693199257 -1.37E-02
   187 Broy./Diag. 0.40E-02    1.5     0.00190685     -5418.3546110349 -3.85E-01
   188 Broy./Diag. 0.40E-02    1.5     0.00505780     -5418.3278538249  2.68E-02
   189 Broy./Diag. 0.40E-02    1.5     0.00215473     -5418.4215492383 -9.37E-02
   190 Broy./Diag. 0.40E-02    1.5     0.01099186     -5418.2725359465  1.49E-01
   191 Broy./Diag. 0.40E-02    1.5     0.00107841     -5418.3151437303 -4.26E-02
   192 Broy./Diag. 0.40E-02    1.5     0.00140418     -5418.5438457405 -2.29E-01
   193 Broy./Diag. 0.40E-02    1.5     0.00441583     -5418.5119649766  3.19E-02
   194 Broy./Diag. 0.40E-02    1.5     0.00285688     -5418.5972569895 -8.53E-02
   195 Broy./Diag. 0.40E-02    1.5     0.00278717     -5418.5110453175  8.62E-02
   196 Broy./Diag. 0.40E-02    1.5     0.01054019     -5418.2698996233  2.41E-01
   197 Broy./Diag. 0.40E-02    1.5     0.00315429     -5418.4390068704 -1.69E-01
   198 Broy./Diag. 0.40E-02    1.5     0.00633187     -5418.6457969477 -2.07E-01
   199 Broy./Diag. 0.40E-02    1.5     0.00182769     -5418.6930420188 -4.72E-02
   200 Broy./Diag. 0.40E-02    1.5     0.00302517     -5418.5521111173  1.41E-01
   201 Broy./Diag. 0.40E-02    1.5     0.00086835     -5418.4443164263  1.08E-01
   202 Broy./Diag. 0.40E-02    1.5     0.00652128     -5418.5087111861 -6.44E-02
   203 Broy./Diag. 0.40E-02    1.5     0.00943747     -5418.3888305186  1.20E-01
   204 Broy./Diag. 0.40E-02    1.5     0.00156153     -5418.1078858488  2.81E-01
   205 Broy./Diag. 0.40E-02    1.5     0.01005419     -5418.3243840481 -2.16E-01
   206 Broy./Diag. 0.40E-02    1.5     0.01780504     -5417.9654845328  3.59E-01
   207 Broy./Diag. 0.40E-02    1.5     0.00418304     -5418.3864303292 -4.21E-01
   208 Broy./Diag. 0.40E-02    1.5     0.00784513     -5418.6319092263 -2.45E-01
   209 Broy./Diag. 0.40E-02    1.5     0.00749853     -5418.6859128663 -5.40E-02
   210 Broy./Diag. 0.40E-02    1.5     0.01030608     -5418.4070150926  2.79E-01
   211 Broy./Diag. 0.40E-02    1.5     0.00329094     -5418.4573127169 -5.03E-02
   212 Broy./Diag. 0.40E-02    1.5     0.00283504     -5418.5709913929 -1.14E-01
   213 Broy./Diag. 0.40E-02    1.5     0.00262488     -5418.7683789423 -1.97E-01
   214 Broy./Diag. 0.40E-02    1.5     0.00200672     -5418.7061634408  6.22E-02
   215 Broy./Diag. 0.40E-02    1.5     0.00309246     -5418.7179063297 -1.17E-02
   216 Broy./Diag. 0.40E-02    1.5     0.00431744     -5418.5341784561  1.84E-01
   217 Broy./Diag. 0.40E-02    1.5     0.01245764     -5418.3644602990  1.70E-01
   218 Broy./Diag. 0.40E-02    1.5     0.01542293     -5417.9604653972  4.04E-01
   219 Broy./Diag. 0.40E-02    1.5     0.01931823     -5418.6128633902 -6.52E-01
   220 Broy./Diag. 0.40E-02    1.5     0.01759669     -5418.3824872954  2.30E-01
   221 Broy./Diag. 0.40E-02    1.5     0.00458064     -5418.5021441937 -1.20E-01
   222 Broy./Diag. 0.40E-02    1.5     0.00440386     -5418.3819217196  1.20E-01
   223 Broy./Diag. 0.40E-02    1.5     0.00194359     -5418.2304189305  1.52E-01
   224 Broy./Diag. 0.40E-02    1.5     0.00116070     -5418.1475721319  8.28E-02
   225 Broy./Diag. 0.40E-02    1.5     0.00713021     -5418.1373016844  1.03E-02
   226 Broy./Diag. 0.40E-02    1.5     0.00310068     -5418.0754793364  6.18E-02
   227 Broy./Diag. 0.40E-02    1.5     0.01180084     -5418.1649179206 -8.94E-02
   228 Broy./Diag. 0.40E-02    1.5     0.00434069     -5418.2285856207 -6.37E-02
   229 Broy./Diag. 0.40E-02    1.5     0.00207155     -5418.1832998750  4.53E-02
   230 Broy./Diag. 0.40E-02    1.5     0.00130303     -5418.1853623256 -2.06E-03
   231 Broy./Diag. 0.40E-02    1.5     0.00860878     -5418.1797735022  5.59E-03
   232 Broy./Diag. 0.40E-02    1.5     0.01664713     -5418.2357461945 -5.60E-02
   233 Broy./Diag. 0.40E-02    1.5     0.00575700     -5418.2735849232 -3.78E-02
   234 Broy./Diag. 0.40E-02    1.5     0.00233471     -5418.2255823243  4.80E-02
   235 Broy./Diag. 0.40E-02    1.5     0.00122108     -5418.1608475979  6.47E-02
   236 Broy./Diag. 0.40E-02    1.5     0.00130196     -5418.0721702975  8.87E-02
   237 Broy./Diag. 0.40E-02    1.5     0.00278022     -5418.0072591144  6.49E-02
   238 Broy./Diag. 0.40E-02    1.5     0.00993463     -5417.9212223989  8.60E-02
   239 Broy./Diag. 0.40E-02    1.5     0.00137003     -5417.9034595537  1.78E-02
   240 Broy./Diag. 0.40E-02    1.5     0.00247349     -5417.9583008252 -5.48E-02
   241 Broy./Diag. 0.40E-02    1.5     0.00320191     -5417.8991503791  5.92E-02
   242 Broy./Diag. 0.40E-02    1.5     0.00863337     -5417.7995074584  9.96E-02
   243 Broy./Diag. 0.40E-02    1.5     0.00520093     -5417.7168848337  8.26E-02
   244 Broy./Diag. 0.40E-02    1.5     0.00524669     -5417.3984056910  3.18E-01
   245 Broy./Diag. 0.40E-02    1.5     0.00443442     -5417.5171843288 -1.19E-01
   246 Broy./Diag. 0.40E-02    1.5     0.00974354     -5417.4674388007  4.97E-02
   247 Broy./Diag. 0.40E-02    1.5     0.00437722     -5417.3528229651  1.15E-01
   248 Broy./Diag. 0.40E-02    1.5     0.01182260     -5417.3884821215 -3.57E-02
   249 Broy./Diag. 0.40E-02    1.5     0.00706940     -5417.4623614924 -7.39E-02
   250 Broy./Diag. 0.40E-02    1.5     0.00251900     -5417.5540785017 -9.17E-02
   251 Broy./Diag. 0.40E-02    1.5     0.01066034     -5417.6961560164 -1.42E-01
   252 Broy./Diag. 0.40E-02    1.5     0.01066610     -5417.7592798411 -6.31E-02
   253 Broy./Diag. 0.40E-02    1.5     0.00724212     -5417.6571497044  1.02E-01
   254 Broy./Diag. 0.40E-02    1.5     0.00170351     -5417.1002436585  5.57E-01
   255 Broy./Diag. 0.40E-02    1.5     0.00961097     -5416.8170573454  2.83E-01
   256 Broy./Diag. 0.40E-02    1.5     0.00691512     -5417.0687113424 -2.52E-01
   257 Broy./Diag. 0.40E-02    1.5     0.00092775     -5416.9548017745  1.14E-01
   258 Broy./Diag. 0.40E-02    1.5     0.00332075     -5416.9044314933  5.04E-02
   259 Broy./Diag. 0.40E-02    1.5     0.01376458     -5416.8896096425  1.48E-02
   260 Broy./Diag. 0.40E-02    1.5     0.01104780     -5417.1342656500 -2.45E-01
   261 Broy./Diag. 0.40E-02    1.5     0.01737373     -5416.3848860889  7.49E-01
   262 Broy./Diag. 0.40E-02    1.5     0.00517795     -5417.6500239345 -1.27E+00
   263 Broy./Diag. 0.40E-02    1.5     0.01049546     -5417.5437724454  1.06E-01
   264 Broy./Diag. 0.40E-02    1.5     0.00371287     -5417.7087375496 -1.65E-01
   265 Broy./Diag. 0.40E-02    1.5     0.00472834     -5417.5979537184  1.11E-01
   266 Broy./Diag. 0.40E-02    1.5     0.00191105     -5417.6626810277 -6.47E-02
   267 Broy./Diag. 0.40E-02    1.5     0.01004659     -5417.7558013333 -9.31E-02
   268 Broy./Diag. 0.40E-02    1.5     0.00739076     -5417.8403908722 -8.46E-02
   269 Broy./Diag. 0.40E-02    1.5     0.01370433     -5417.8817497115 -4.14E-02
   270 Broy./Diag. 0.40E-02    1.5     0.00816530     -5417.7403218964  1.41E-01
   271 Broy./Diag. 0.40E-02    1.5     0.00401279     -5417.6359306268  1.04E-01
   272 Broy./Diag. 0.40E-02    1.5     0.00452855     -5417.4757489690  1.60E-01
   273 Broy./Diag. 0.40E-02    1.5     0.00380962     -5417.2934148246  1.82E-01
   274 Broy./Diag. 0.40E-02    1.5     0.00483814     -5417.5658963828 -2.72E-01
   275 Broy./Diag. 0.40E-02    1.5     0.00117367     -5417.6166193859 -5.07E-02
   276 Broy./Diag. 0.40E-02    1.5     0.00179186     -5417.6927221981 -7.61E-02
   277 Broy./Diag. 0.40E-02    1.5     0.00111231     -5417.5565440358  1.36E-01
   278 Broy./Diag. 0.40E-02    1.5     0.03322897     -5417.5882899876 -3.17E-02
   279 Broy./Diag. 0.40E-02    1.5     0.00265791     -5417.0388225588  5.49E-01
   280 Broy./Diag. 0.40E-02    1.5     0.01383731     -5416.8254251639  2.13E-01
   281 Broy./Diag. 0.40E-02    1.5     0.00570820     -5417.7067369535 -8.81E-01
   282 Broy./Diag. 0.40E-02    1.5     0.00928089     -5417.7654891333 -5.88E-02
   283 Broy./Diag. 0.40E-02    1.5     0.00114171     -5417.4990877223  2.66E-01
   284 Broy./Diag. 0.40E-02    1.5     0.00550267     -5417.4882684145  1.08E-02
   285 Broy./Diag. 0.40E-02    1.5     0.00405321     -5417.6456418065 -1.57E-01
   286 Broy./Diag. 0.40E-02    1.5     0.00902461     -5417.7787853592 -1.33E-01
   287 Broy./Diag. 0.40E-02    1.5     0.00207948     -5417.7059294586  7.29E-02
   288 Broy./Diag. 0.40E-02    1.5     0.00867652     -5417.6929619241  1.30E-02
   289 Broy./Diag. 0.40E-02    1.5     0.00127684     -5417.5758192379  1.17E-01
   290 Broy./Diag. 0.40E-02    1.5     0.00313012     -5417.7546138172 -1.79E-01
   291 Broy./Diag. 0.40E-02    1.5     0.00731187     -5417.7827492536 -2.81E-02
   292 Broy./Diag. 0.40E-02    1.5     0.00789373     -5417.5950962465  1.88E-01
   293 Broy./Diag. 0.40E-02    1.5     0.00498242     -5417.6687159822 -7.36E-02
   294 Broy./Diag. 0.40E-02    1.5     0.00582515     -5417.6319292863  3.68E-02
   295 Broy./Diag. 0.40E-02    1.5     0.01401659     -5417.2366645185  3.95E-01
   296 Broy./Diag. 0.40E-02    1.5     0.00842873     -5416.7647226307  4.72E-01
   297 Broy./Diag. 0.40E-02    1.5     0.00944059     -5417.3058321081 -5.41E-01
   298 Broy./Diag. 0.40E-02    1.5     0.01106892     -5416.6542265554  6.52E-01
   299 Broy./Diag. 0.40E-02    1.5     0.00570455     -5417.0952990173 -4.41E-01
   300 Broy./Diag. 0.40E-02    1.5     0.00392896     -5417.2201083707 -1.25E-01
   301 Broy./Diag. 0.40E-02    1.5     0.00778839     -5417.2845601344 -6.45E-02
   302 Broy./Diag. 0.40E-02    1.5     0.00433198     -5416.4542080524  8.30E-01
   303 Broy./Diag. 0.40E-02    1.5     0.00073192     -5416.8634766919 -4.09E-01
   304 Broy./Diag. 0.40E-02    1.5     0.01098836     -5416.8464200455  1.71E-02
   305 Broy./Diag. 0.40E-02    1.5     0.00383624     -5417.2224426176 -3.76E-01
   306 Broy./Diag. 0.40E-02    1.5     0.00424185     -5417.0663498683  1.56E-01
   307 Broy./Diag. 0.40E-02    1.5     0.00095136     -5417.2288652223 -1.63E-01
   308 Broy./Diag. 0.40E-02    1.5     0.00265988     -5417.0445977138  1.84E-01
   309 Broy./Diag. 0.40E-02    1.5     0.00378545     -5417.1998090199 -1.55E-01
   310 Broy./Diag. 0.40E-02    1.5     0.01434507     -5417.7821690454 -5.82E-01
   311 Broy./Diag. 0.40E-02    1.5     0.00768852     -5417.5995419900  1.83E-01
   312 Broy./Diag. 0.40E-02    1.5     0.00565953     -5417.1277947113  4.72E-01
   313 Broy./Diag. 0.40E-02    1.5     0.00263171     -5416.5858155010  5.42E-01
   314 Broy./Diag. 0.40E-02    1.5     0.01306127     -5416.4832506743  1.03E-01
   315 Broy./Diag. 0.40E-02    1.5     0.01084237     -5416.6852340117 -2.02E-01
   316 Broy./Diag. 0.40E-02    1.5     0.00165471     -5416.9644961905 -2.79E-01
   317 Broy./Diag. 0.40E-02    1.5     0.00580631     -5417.0295863857 -6.51E-02
   318 Broy./Diag. 0.40E-02    1.5     0.00912987     -5417.1426095538 -1.13E-01
   319 Broy./Diag. 0.40E-02    1.5     0.00379306     -5416.6702455236  4.72E-01
   320 Broy./Diag. 0.40E-02    1.5     0.00559906     -5416.9702135455 -3.00E-01
   321 Broy./Diag. 0.40E-02    1.5     0.00413662     -5416.9532273446  1.70E-02
   322 Broy./Diag. 0.40E-02    1.5     0.00431969     -5417.0721523661 -1.19E-01
   323 Broy./Diag. 0.40E-02    1.5     0.02715595     -5417.1846374446 -1.12E-01
   324 Broy./Diag. 0.40E-02    1.5     0.00908888     -5417.4888152920 -3.04E-01
   325 Broy./Diag. 0.40E-02    1.5     0.01527082     -5417.7159891139 -2.27E-01
   326 Broy./Diag. 0.40E-02    1.5     0.00430014     -5416.6891558837  1.03E+00
   327 Broy./Diag. 0.40E-02    1.5     0.00974639     -5416.1993872307  4.90E-01
   328 Broy./Diag. 0.40E-02    1.5     0.00294168     -5416.7171988706 -5.18E-01
   329 Broy./Diag. 0.40E-02    1.5     0.01681729     -5416.7074678300  9.73E-03
   330 Broy./Diag. 0.40E-02    1.5     0.00474509     -5416.8553809424 -1.48E-01
   331 Broy./Diag. 0.40E-02    1.5     0.00973510     -5417.2484739283 -3.93E-01
   332 Broy./Diag. 0.40E-02    1.5     0.00130859     -5417.1342994477  1.14E-01
   333 Broy./Diag. 0.40E-02    1.5     0.00292563     -5417.1463597711 -1.21E-02
   334 Broy./Diag. 0.40E-02    1.5     0.00253470     -5417.0087144898  1.38E-01
   335 Broy./Diag. 0.40E-02    1.5     0.00072831     -5417.1297993835 -1.21E-01
   336 Broy./Diag. 0.40E-02    1.5     0.00267257     -5417.0643369033  6.55E-02
   337 Broy./Diag. 0.40E-02    1.5     0.00628090     -5417.0738903878 -9.55E-03
   338 Broy./Diag. 0.40E-02    1.5     0.00709953     -5417.0010637433  7.28E-02
   339 Broy./Diag. 0.40E-02    1.5     0.00220079     -5417.0116165575 -1.06E-02
   340 Broy./Diag. 0.40E-02    1.5     0.00409380     -5416.8785735915  1.33E-01
   341 Broy./Diag. 0.40E-02    1.5     0.01223593     -5416.9704488467 -9.19E-02
   342 Broy./Diag. 0.40E-02    1.5     0.00491098     -5417.2988869482 -3.28E-01
   343 Broy./Diag. 0.40E-02    1.5     0.00700212     -5417.0769146975  2.22E-01
   344 Broy./Diag. 0.40E-02    1.5     0.00396807     -5416.8472147122  2.30E-01
   345 Broy./Diag. 0.40E-02    1.5     0.00909546     -5416.7653266971  8.19E-02
   346 Broy./Diag. 0.40E-02    1.5     0.02825481     -5416.6292792854  1.36E-01
   347 Broy./Diag. 0.40E-02    1.5     0.00776997     -5417.0925524401 -4.63E-01
   348 Broy./Diag. 0.40E-02    1.5     0.01188334     -5417.2177938865 -1.25E-01
   349 Broy./Diag. 0.40E-02    1.5     0.00781499     -5416.9855191617  2.32E-01
   350 Broy./Diag. 0.40E-02    1.5     0.00541894     -5417.1771218574 -1.92E-01
   351 Broy./Diag. 0.40E-02    1.5     0.00352968     -5417.3144758980 -1.37E-01
   352 Broy./Diag. 0.40E-02    1.5     0.00202838     -5417.3930392476 -7.86E-02
   353 Broy./Diag. 0.40E-02    1.5     0.01179283     -5417.2843778998  1.09E-01
   354 Broy./Diag. 0.40E-02    1.5     0.01045741     -5417.4256120273 -1.41E-01
   355 Broy./Diag. 0.40E-02    1.5     0.00450197     -5417.3254230435  1.00E-01
   356 Broy./Diag. 0.40E-02    1.5     0.00237121     -5417.2255585027  9.99E-02
   357 Broy./Diag. 0.40E-02    1.5     0.00611466     -5416.8632092243  3.62E-01
   358 Broy./Diag. 0.40E-02    1.5     0.00545910     -5416.4647631628  3.98E-01
   359 Broy./Diag. 0.40E-02    1.5     0.00224308     -5416.3591563834  1.06E-01
   360 Broy./Diag. 0.40E-02    1.5     0.00700285     -5416.2599050574  9.93E-02
   361 Broy./Diag. 0.40E-02    1.5     0.00428158     -5417.0506632783 -7.91E-01
   362 Broy./Diag. 0.40E-02    1.5     0.00678260     -5416.7328925323  3.18E-01
   363 Broy./Diag. 0.40E-02    1.5     0.00778062     -5416.6747871055  5.81E-02
   364 Broy./Diag. 0.40E-02    1.5     0.00657209     -5416.8027140658 -1.28E-01
   365 Broy./Diag. 0.40E-02    1.5     0.00278658     -5416.6797594179  1.23E-01
   366 Broy./Diag. 0.40E-02    1.5     0.00651645     -5416.6315945282  4.82E-02
   367 Broy./Diag. 0.40E-02    1.5     0.00979400     -5416.7846858626 -1.53E-01
   368 Broy./Diag. 0.40E-02    1.5     0.00235461     -5417.0125778051 -2.28E-01
   369 Broy./Diag. 0.40E-02    1.5     0.00654072     -5416.9135654353  9.90E-02
   370 Broy./Diag. 0.40E-02    1.5     0.00485703     -5417.2331314575 -3.20E-01
