 DBCSR| CPU Multiplication driver                                           XSMM (U)
 DBCSR| Multrec recursion limit                                              512 (U)
 DBCSR| Multiplication stack size                                           1000 (D)
 DBCSR| Maximum elements for images                                    UNLIMITED (U)
 DBCSR| Multiplicative factor virtual images                                   1 (U)
 DBCSR| Use multiplication densification                                       T (D)
 DBCSR| Multiplication size stacks                                             3 (U)
 DBCSR| Use memory pool for CPU allocation                                     F (U)
 DBCSR| Number of 3D layers                                               SINGLE (U)
 DBCSR| Use MPI memory allocation                                              F (U)
 DBCSR| Use RMA algorithm                                                      F (U)
 DBCSR| Use Communication thread                                               T (U)
 DBCSR| Communication thread load                                             87 (D)
 DBCSR| MPI: My process id                                                     0
 DBCSR| MPI: Number of processes                                             128
 DBCSR| OMP: Current number of threads                                         1
 DBCSR| OMP: Max number of threads                                             1
 DBCSR| Split modifier for TAS multiplication algorithm                  1.0E+00 (U)


  **** **** ******  **  PROGRAM STARTED AT               2023-02-15 13:12:40.441
 ***** ** ***  *** **   PROGRAM STARTED ON                             nid003070
 **    ****   ******    PROGRAM STARTED BY                                cahart
 ***** **    ** ** **   PROGRAM PROCESS ID                                156744
  **** **  *******  **  PROGRAM STARTED IN /mnt/lustre/a2fs-work2/work/e05/e05/c
                                           ahart/postdoc/masters/ni/archer2/slab
                                           /optimise/magnetisation/scf_1e-4_temp
                                           -2000_mos-1000_alpha-0.08_beta-1.5_pe
                                           riodic-xyz/search/0.21_0.7

 CP2K| version string:                 CP2K version 2023.1 (Development Version)
 CP2K| source code revision number:                                  git:964cd58
 CP2K| cp2kflags: omp libint fftw3 libxc elpa parallel scalapack xsmm plumed2 mk
 CP2K|            l
 CP2K| is freely available from                            https://www.cp2k.org/
 CP2K| Program compiled at                          Mon 13 Feb 17:05:14 GMT 2023
 CP2K| Program compiled on                                                  ln01
 CP2K| Program compiled for                                              ARCHER2
 CP2K| Data directory path    /work/e05/e05/cahart/cp2k/cp2k-2023.1/cp2k-2023.1-
 CP2K| Input file name                                                  cp2k.inp

 GLOBAL| Force Environment number                                              1
 GLOBAL| Basis set file name                                        BASIS_MOLOPT
 GLOBAL| Potential file name                                      GTH_POTENTIALS
 GLOBAL| MM Potential file name                                     MM_POTENTIAL
 GLOBAL| Coordinate file name                                      __STD_INPUT__
 GLOBAL| Method name                                                        CP2K
 GLOBAL| Project name                                                    Ni_bulk
 GLOBAL| Run type                                                         ENERGY
 GLOBAL| FFT library                                                       FFTW3
 GLOBAL| Diagonalization library                                            ELPA
 GLOBAL| DGEMM library                                                      BLAS
 GLOBAL| Minimum number of eigenvectors for ELPA usage                        16
 GLOBAL| Orthonormality check for eigenvectors                          DISABLED
 GLOBAL| Matrix multiplication library                                 ScaLAPACK
 GLOBAL| All-to-all communication in single precision                          F
 GLOBAL| FFTs using library dependent lengths                                  F
 GLOBAL| Grid backend                                                       AUTO
 GLOBAL| Global print level                                               MEDIUM
 GLOBAL| MPI I/O enabled                                                       T
 GLOBAL| Total number of message passing processes                           128
 GLOBAL| Number of threads for this process                                    1
 GLOBAL| This output is from process                                           0
 GLOBAL| Stack size for threads created by OpenMP (OMP_STACKSIZE)        default
 GLOBAL| CPU model name                          AMD EPYC 7742 64-Core Processor
 GLOBAL| CPUID                                                              1002

 MEMORY| system memory details [Kb]
 MEMORY|                        rank 0           min           max       average
 MEMORY| MemTotal            263528084     263528084     263528084     263528084
 MEMORY| MemFree             238763052     238762808     238763052     238763034
 MEMORY| Buffers                 25132         25132         25132         25132
 MEMORY| Cached                 736132        736132        736132        736132
 MEMORY| Slab                  1588232       1588188       1588232       1588229
 MEMORY| SReclaimable           104244        104244        104244        104244
 MEMORY| MemLikelyFree       239628560     239628316     239628560     239628542


 *** Fundamental physical constants (SI units) ***

 *** Literature: B. J. Mohr and B. N. Taylor,
 ***             CODATA recommended values of the fundamental physical
 ***             constants: 2006, Web Version 5.1
 ***             http://physics.nist.gov/constants

 Speed of light in vacuum [m/s]                             2.99792458000000E+08
 Magnetic constant or permeability of vacuum [N/A**2]       1.25663706143592E-06
 Electric constant or permittivity of vacuum [F/m]          8.85418781762039E-12
 Planck constant (h) [J*s]                                  6.62606896000000E-34
 Planck constant (h-bar) [J*s]                              1.05457162825177E-34
 Elementary charge [C]                                      1.60217648700000E-19
 Electron mass [kg]                                         9.10938215000000E-31
 Electron g factor [ ]                                     -2.00231930436220E+00
 Proton mass [kg]                                           1.67262163700000E-27
 Fine-structure constant                                    7.29735253760000E-03
 Rydberg constant [1/m]                                     1.09737315685270E+07
 Avogadro constant [1/mol]                                  6.02214179000000E+23
 Boltzmann constant [J/K]                                   1.38065040000000E-23
 Atomic mass unit [kg]                                      1.66053878200000E-27
 Bohr radius [m]                                            5.29177208590000E-11

 *** Conversion factors ***

 [u] -> [a.u.]                                              1.82288848426455E+03
 [Angstrom] -> [Bohr] = [a.u.]                              1.88972613288564E+00
 [a.u.] = [Bohr] -> [Angstrom]                              5.29177208590000E-01
 [a.u.] -> [s]                                              2.41888432650478E-17
 [a.u.] -> [fs]                                             2.41888432650478E-02
 [a.u.] -> [J]                                              4.35974393937059E-18
 [a.u.] -> [N]                                              8.23872205491840E-08
 [a.u.] -> [K]                                              3.15774647902944E+05
 [a.u.] -> [kJ/mol]                                         2.62549961709828E+03
 [a.u.] -> [kcal/mol]                                       6.27509468713739E+02
 [a.u.] -> [Pa]                                             2.94210107994716E+13
 [a.u.] -> [bar]                                            2.94210107994716E+08
 [a.u.] -> [atm]                                            2.90362800883016E+08
 [a.u.] -> [eV]                                             2.72113838565563E+01
 [a.u.] -> [Hz]                                             6.57968392072181E+15
 [a.u.] -> [1/cm] (wave numbers)                            2.19474631370540E+05
 [a.u./Bohr**2] -> [1/cm]                                   5.14048714338585E+03
 

 CELL_TOP| Volume [angstrom^3]:                                       983.249569
 CELL_TOP| Vector a [angstrom     7.012     0.000     0.000   |a| =     7.011596
 CELL_TOP| Vector b [angstrom     0.000     7.012     0.000   |b| =     7.011596
 CELL_TOP| Vector c [angstrom     0.000     0.000    20.000   |c| =    20.000000
 CELL_TOP| Angle (b,c), alpha [degree]:                                90.000000
 CELL_TOP| Angle (a,c), beta  [degree]:                                90.000000
 CELL_TOP| Angle (a,b), gamma [degree]:                                90.000000
 CELL_TOP| Numerically orthorhombic:                                         YES
 CELL_TOP| Periodicity                                                       XYZ

 GENERATE|  Preliminary Number of Bonds generated:                             0
 GENERATE|  Achieved consistency in connectivity generation.

 CELL| Volume [angstrom^3]:                                           983.249569
 CELL| Vector a [angstrom]:       7.012     0.000     0.000   |a| =     7.011596
 CELL| Vector b [angstrom]:       0.000     7.012     0.000   |b| =     7.011596
 CELL| Vector c [angstrom]:       0.000     0.000    20.000   |c| =    20.000000
 CELL| Angle (b,c), alpha [degree]:                                    90.000000
 CELL| Angle (a,c), beta  [degree]:                                    90.000000
 CELL| Angle (a,b), gamma [degree]:                                    90.000000
 CELL| Numerically orthorhombic:                                             YES
 CELL| Periodicity                                                           XYZ

 CELL_REF| Volume [angstrom^3]:                                       983.249569
 CELL_REF| Vector a [angstrom     7.012     0.000     0.000   |a| =     7.011596
 CELL_REF| Vector b [angstrom     0.000     7.012     0.000   |b| =     7.011596
 CELL_REF| Vector c [angstrom     0.000     0.000    20.000   |c| =    20.000000
 CELL_REF| Angle (b,c), alpha [degree]:                                90.000000
 CELL_REF| Angle (a,c), beta  [degree]:                                90.000000
 CELL_REF| Angle (a,b), gamma [degree]:                                90.000000
 CELL_REF| Numerically orthorhombic:                                         YES
 CELL_REF| Periodicity                                                       XYZ

 *** WARNING in cryssym.F:165 :: Symmetry library SPGLIB not available ***


 *******************************************************************************
                                    Kpoints
 *******************************************************************************
 BRILLOUIN| K-point scheme                                        Monkhorst-Pack
 BRILLOUIN| K-Point grid                                             4    4    1
 BRILLOUIN| Accuracy in Symmetry determination                      0.100000E-05
 BRILLOUIN| K-Point point group symmetrization                               OFF
 BRILLOUIN| Wavefunction type                                            COMPLEX
 BRILLOUIN| List of Kpoints [2 Pi/Bohr]                                        8
 BRILLOUIN| Number           Weight            X              Y              Z
 BRILLOUIN|     1           0.12500       -0.37500       -0.37500        0.00000
 BRILLOUIN|     2           0.12500       -0.37500       -0.12500        0.00000
 BRILLOUIN|     3           0.12500       -0.37500        0.12500        0.00000
 BRILLOUIN|     4           0.12500       -0.37500        0.37500        0.00000
 BRILLOUIN|     5           0.12500       -0.12500       -0.37500        0.00000
 BRILLOUIN|     6           0.12500       -0.12500       -0.12500        0.00000
 BRILLOUIN|     7           0.12500       -0.12500        0.12500        0.00000
 BRILLOUIN|     8           0.12500       -0.12500        0.37500        0.00000
 *******************************************************************************

 *******************************************************************************
 *******************************************************************************
 **                                                                           **
 **     #####                         ##              ##                      **
 **    ##   ##            ##          ##              ##                      **
 **   ##     ##                       ##            ######                    **
 **   ##     ##  ##   ##  ##   #####  ##  ##   ####   ##    #####    #####    **
 **   ##     ##  ##   ##  ##  ##      ## ##   ##      ##   ##   ##  ##   ##   **
 **   ##  ## ##  ##   ##  ##  ##      ####     ###    ##   ######   ######    **
 **    ##  ###   ##   ##  ##  ##      ## ##      ##   ##   ##       ##        **
 **     #######   #####   ##   #####  ##  ##  ####    ##    #####   ##        **
 **           ##                                                    ##        **
 **                                                                           **
 **                                                ... make the atoms dance   **
 **                                                                           **
 **            Copyright (C) by CP2K developers group (2000-2023)             **
 **                      J. Chem. Phys. 152, 194103 (2020)                    **
 **                                                                           **
 *******************************************************************************

 *** WARNING in qs_environment.F:1456 :: Number of electrons will be ***
 *** overwritten by NELEC_ALPHA and NELEC_BETA, multiplicity will be ***
 *** ignored.                                                        ***

 Number of electrons should be                                               576
 Sum of NELEC_ALPHA and NELEC_BETA is                                    576.000

 *** WARNING in qs_environment.F:1488 :: NELEC_ALPHA is not an integer, ***
 *** many features will not be supported.                               ***


 *** WARNING in qs_environment.F:1500 :: NELEC_BETA is not an integer, ***
 *** many features will not be supported.                              ***


 *** WARNING in qs_environment.F:1532 :: More ADDED_MOs requested for beta ***
 *** spin than available.                                                  ***


 *** WARNING in qs_environment.F:1548 :: More added MOs requested than     ***
 *** available. The full set of unoccupied MOs will be used. Use           ***
 *** 'ADDED_MOS -1' to always use all available MOs and to get rid of this ***
 *** warning.                                                              ***


 DFT| Spin unrestricted (spin-polarized) Kohn-Sham calculation               UKS
 DFT| Multiplicity                                                             1
 DFT| Number of spin states                                                    2
 DFT| Charge                                                                   0
 DFT| Self-interaction correction (SIC)                                       NO
 DFT| Cutoffs: density                                              1.000000E-10
 DFT|          gradient                                             1.000000E-10
 DFT|          tau                                                  1.000000E-10
 DFT|          cutoff_smoothing_range                               0.000000E+00
 DFT| XC density smoothing                                                  NONE
 DFT| XC derivatives                                                          PW

 FUNCTIONAL| PBE:
 FUNCTIONAL| J.P.Perdew, K.Burke, M.Ernzerhof, Phys. Rev. Letter, vol. 77, n 18,
 FUNCTIONAL|  pp. 3865-3868, (1996){spin polarized}                             

 vdW POTENTIAL|                                                   Pair Potential
 vdW POTENTIAL|          DFT-D3 (Version 3.1)
 vdW POTENTIAL|          Potential Form: S. Grimme et al, JCP 132: 154104 (2010)
 vdW POTENTIAL|          Zero Damping
 vdW POTENTIAL|          Cutoff Radius [Bohr]:                             20.00
 vdW POTENTIAL|          s6 Scaling Factor:                               1.0000
 vdW POTENTIAL|          sr6 Scaling Factor:                              1.2170
 vdW POTENTIAL|          s8 Scaling Factor:                               0.7220
 vdW POTENTIAL|          Cutoff for CN calculation:                   0.1000E-05

 QS| Method:                                                                 GPW
 QS| Density plane wave grid type                        NON-SPHERICAL FULLSPACE
 QS| Number of grid levels:                                                    5
 QS| Density cutoff [a.u.]:                                                300.0
 QS| Multi grid cutoff [a.u.]: 1) grid level                               300.0
 QS|                           2) grid level                               100.0
 QS|                           3) grid level                                33.3
 QS|                           4) grid level                                11.1
 QS|                           5) grid level                                 3.7
 QS| Grid level progression factor:                                          3.0
 QS| Relative density cutoff [a.u.]:                                        30.0
 QS| Interaction thresholds: eps_pgf_orb:                                1.0E-06
 QS|                         eps_filter_matrix:                          0.0E+00
 QS|                         eps_core_charge:                            1.0E-14
 QS|                         eps_rho_gspace:                             1.0E-12
 QS|                         eps_rho_rspace:                             1.0E-12
 QS|                         eps_gvg_rspace:                             1.0E-06
 QS|                         eps_ppl:                                    1.0E-02
 QS|                         eps_ppnl:                                   1.0E-08


 ATOMIC KIND INFORMATION

  1. Atomic kind: Ni_i                                  Number of atoms:      16

     Orbital Basis Set                                        DZVP-MOLOPT-SR-GTH

       Number of orbital shell sets:                                           1
       Number of orbital shells:                                               8
       Number of primitive Cartesian functions:                                6
       Number of Cartesian basis functions:                                   31
       Number of spherical basis functions:                                   26
       Norm type:                                                              2

       Normalised Cartesian orbitals:

                        Set   Shell   Orbital            Exponent    Coefficient

                          1       1    2s               10.077428      -0.684558
                                                         5.847736      -0.844524
                                                         2.494033       1.088856
                                                         0.988355       0.395503
                                                         0.344978       0.010224
                                                         0.099466      -0.003250

                          1       2    3s               10.077428       0.096747
                                                         5.847736       0.162504
                                                         2.494033      -0.297192
                                                         0.988355      -0.319752
                                                         0.344978       0.088318
                                                         0.099466       0.118587

                          1       3    4s               10.077428       0.036437
                                                         5.847736      -0.381480
                                                         2.494033       0.003759
                                                         0.988355      -1.048256
                                                         0.344978       0.855825
                                                         0.099466      -0.176350

                          1       4    3px              10.077428      -3.133913
                                                         5.847736       3.027656
                                                         2.494033       2.353227
                                                         0.988355       0.554184
                                                         0.344978       0.019462
                                                         0.099466      -0.000291
                          1       4    3py              10.077428      -3.133913
                                                         5.847736       3.027656
                                                         2.494033       2.353227
                                                         0.988355       0.554184
                                                         0.344978       0.019462
                                                         0.099466      -0.000291
                          1       4    3pz              10.077428      -3.133913
                                                         5.847736       3.027656
                                                         2.494033       2.353227
                                                         0.988355       0.554184
                                                         0.344978       0.019462
                                                         0.099466      -0.000291

                          1       5    4px              10.077428      -0.112729
                                                         5.847736      -0.114008
                                                         2.494033      -0.347303
                                                         0.988355      -0.110323
                                                         0.344978       0.154096
                                                         0.099466       0.058386
                          1       5    4py              10.077428      -0.112729
                                                         5.847736      -0.114008
                                                         2.494033      -0.347303
                                                         0.988355      -0.110323
                                                         0.344978       0.154096
                                                         0.099466       0.058386
                          1       5    4pz              10.077428      -0.112729
                                                         5.847736      -0.114008
                                                         2.494033      -0.347303
                                                         0.988355      -0.110323
                                                         0.344978       0.154096
                                                         0.099466       0.058386

                          1       6    4dx2             10.077428       8.232726
                                                         5.847736       9.105758
                                                         2.494033       2.849835
                                                         0.988355       0.554319
                                                         0.344978       0.067245
                                                         0.099466       0.001940
                          1       6    4dxy             10.077428      14.259500
                                                         5.847736      15.771636
                                                         2.494033       4.936060
                                                         0.988355       0.960109
                                                         0.344978       0.116472
                                                         0.099466       0.003360
                          1       6    4dxz             10.077428      14.259500
                                                         5.847736      15.771636
                                                         2.494033       4.936060
                                                         0.988355       0.960109
                                                         0.344978       0.116472
                                                         0.099466       0.003360
                          1       6    4dy2             10.077428       8.232726
                                                         5.847736       9.105758
                                                         2.494033       2.849835
                                                         0.988355       0.554319
                                                         0.344978       0.067245
                                                         0.099466       0.001940
                          1       6    4dyz             10.077428      14.259500
                                                         5.847736      15.771636
                                                         2.494033       4.936060
                                                         0.988355       0.960109
                                                         0.344978       0.116472
                                                         0.099466       0.003360
                          1       6    4dz2             10.077428       8.232726
                                                         5.847736       9.105758
                                                         2.494033       2.849835
                                                         0.988355       0.554319
                                                         0.344978       0.067245
                                                         0.099466       0.001940

                          1       7    5dx2             10.077428      -2.715373
                                                         5.847736      -4.020640
                                                         2.494033      -1.397569
                                                         0.988355      -0.076143
                                                         0.344978       0.033435
                                                         0.099466       0.026032
                          1       7    5dxy             10.077428      -4.703164
                                                         5.847736      -6.963952
                                                         2.494033      -2.420661
                                                         0.988355      -0.131883
                                                         0.344978       0.057911
                                                         0.099466       0.045088
                          1       7    5dxz             10.077428      -4.703164
                                                         5.847736      -6.963952
                                                         2.494033      -2.420661
                                                         0.988355      -0.131883
                                                         0.344978       0.057911
                                                         0.099466       0.045088
                          1       7    5dy2             10.077428      -2.715373
                                                         5.847736      -4.020640
                                                         2.494033      -1.397569
                                                         0.988355      -0.076143
                                                         0.344978       0.033435
                                                         0.099466       0.026032
                          1       7    5dyz             10.077428      -4.703164
                                                         5.847736      -6.963952
                                                         2.494033      -2.420661
                                                         0.988355      -0.131883
                                                         0.344978       0.057911
                                                         0.099466       0.045088
                          1       7    5dz2             10.077428      -2.715373
                                                         5.847736      -4.020640
                                                         2.494033      -1.397569
                                                         0.988355      -0.076143
                                                         0.344978       0.033435
                                                         0.099466       0.026032

                          1       8    5fx3             10.077428      -0.467694
                                                         5.847736       0.618100
                                                         2.494033       0.066069
                                                         0.988355       0.262898
                                                         0.344978       0.004720
                                                         0.099466       0.007748
                          1       8    5fx2y            10.077428      -1.045795
                                                         5.847736       1.382114
                                                         2.494033       0.147734
                                                         0.988355       0.587859
                                                         0.344978       0.010555
                                                         0.099466       0.017325
                          1       8    5fx2z            10.077428      -1.045795
                                                         5.847736       1.382114
                                                         2.494033       0.147734
                                                         0.988355       0.587859
                                                         0.344978       0.010555
                                                         0.099466       0.017325
                          1       8    5fxy2            10.077428      -1.045795
                                                         5.847736       1.382114
                                                         2.494033       0.147734
                                                         0.988355       0.587859
                                                         0.344978       0.010555
                                                         0.099466       0.017325
                          1       8    5fxyz            10.077428      -1.811371
                                                         5.847736       2.393892
                                                         2.494033       0.255883
                                                         0.988355       1.018201
                                                         0.344978       0.018282
                                                         0.099466       0.030008
                          1       8    5fxz2            10.077428      -1.045795
                                                         5.847736       1.382114
                                                         2.494033       0.147734
                                                         0.988355       0.587859
                                                         0.344978       0.010555
                                                         0.099466       0.017325
                          1       8    5fy3             10.077428      -0.467694
                                                         5.847736       0.618100
                                                         2.494033       0.066069
                                                         0.988355       0.262898
                                                         0.344978       0.004720
                                                         0.099466       0.007748
                          1       8    5fy2z            10.077428      -1.045795
                                                         5.847736       1.382114
                                                         2.494033       0.147734
                                                         0.988355       0.587859
                                                         0.344978       0.010555
                                                         0.099466       0.017325
                          1       8    5fyz2            10.077428      -1.045795
                                                         5.847736       1.382114
                                                         2.494033       0.147734
                                                         0.988355       0.587859
                                                         0.344978       0.010555
                                                         0.099466       0.017325
                          1       8    5fz3             10.077428      -0.467694
                                                         5.847736       0.618100
                                                         2.494033       0.066069
                                                         0.988355       0.262898
                                                         0.344978       0.004720
                                                         0.099466       0.007748

       Atomic covalent radius [Angstrom]:                                  1.150

       Atomic van der Waals radius [Angstrom]:                             1.630

     GTH Potential information for                                   GTH-PBE-q18

       Description:                       Goedecker-Teter-Hutter pseudopotential
                                           Goedecker et al., PRB 54, 1703 (1996)
                                          Hartwigsen et al., PRB 58, 3641 (1998)
                                                      Krack, TCA 114, 145 (2005)

       Gaussian exponent of the core charge distribution:               4.081633
       Electronic configuration (s p d ...):                           4   6   8

       Parameters of the local part of the GTH pseudopotential:

                          rloc        C1          C2          C3          C4
                        0.350000    2.102166    0.648484

       Parameters of the non-local part of the GTH pseudopotential:

                   l      r(l)      h(i,j,l)

                   0    0.261295    0.622658    9.970227
                                    9.970227  -12.871507
                   1    0.224253  -11.142708   12.429566
                                   12.429566  -14.706861
                   2    0.215348  -12.628146

  2. Atomic kind: Ni_b                                  Number of atoms:      16

     Orbital Basis Set                                        DZVP-MOLOPT-SR-GTH

       Number of orbital shell sets:                                           1
       Number of orbital shells:                                               8
       Number of primitive Cartesian functions:                                6
       Number of Cartesian basis functions:                                   31
       Number of spherical basis functions:                                   26
       Norm type:                                                              2

       Normalised Cartesian orbitals:

                        Set   Shell   Orbital            Exponent    Coefficient

                          1       1    2s               10.077428      -0.684558
                                                         5.847736      -0.844524
                                                         2.494033       1.088856
                                                         0.988355       0.395503
                                                         0.344978       0.010224
                                                         0.099466      -0.003250

                          1       2    3s               10.077428       0.096747
                                                         5.847736       0.162504
                                                         2.494033      -0.297192
                                                         0.988355      -0.319752
                                                         0.344978       0.088318
                                                         0.099466       0.118587

                          1       3    4s               10.077428       0.036437
                                                         5.847736      -0.381480
                                                         2.494033       0.003759
                                                         0.988355      -1.048256
                                                         0.344978       0.855825
                                                         0.099466      -0.176350

                          1       4    3px              10.077428      -3.133913
                                                         5.847736       3.027656
                                                         2.494033       2.353227
                                                         0.988355       0.554184
                                                         0.344978       0.019462
                                                         0.099466      -0.000291
                          1       4    3py              10.077428      -3.133913
                                                         5.847736       3.027656
                                                         2.494033       2.353227
                                                         0.988355       0.554184
                                                         0.344978       0.019462
                                                         0.099466      -0.000291
                          1       4    3pz              10.077428      -3.133913
                                                         5.847736       3.027656
                                                         2.494033       2.353227
                                                         0.988355       0.554184
                                                         0.344978       0.019462
                                                         0.099466      -0.000291

                          1       5    4px              10.077428      -0.112729
                                                         5.847736      -0.114008
                                                         2.494033      -0.347303
                                                         0.988355      -0.110323
                                                         0.344978       0.154096
                                                         0.099466       0.058386
                          1       5    4py              10.077428      -0.112729
                                                         5.847736      -0.114008
                                                         2.494033      -0.347303
                                                         0.988355      -0.110323
                                                         0.344978       0.154096
                                                         0.099466       0.058386
                          1       5    4pz              10.077428      -0.112729
                                                         5.847736      -0.114008
                                                         2.494033      -0.347303
                                                         0.988355      -0.110323
                                                         0.344978       0.154096
                                                         0.099466       0.058386

                          1       6    4dx2             10.077428       8.232726
                                                         5.847736       9.105758
                                                         2.494033       2.849835
                                                         0.988355       0.554319
                                                         0.344978       0.067245
                                                         0.099466       0.001940
                          1       6    4dxy             10.077428      14.259500
                                                         5.847736      15.771636
                                                         2.494033       4.936060
                                                         0.988355       0.960109
                                                         0.344978       0.116472
                                                         0.099466       0.003360
                          1       6    4dxz             10.077428      14.259500
                                                         5.847736      15.771636
                                                         2.494033       4.936060
                                                         0.988355       0.960109
                                                         0.344978       0.116472
                                                         0.099466       0.003360
                          1       6    4dy2             10.077428       8.232726
                                                         5.847736       9.105758
                                                         2.494033       2.849835
                                                         0.988355       0.554319
                                                         0.344978       0.067245
                                                         0.099466       0.001940
                          1       6    4dyz             10.077428      14.259500
                                                         5.847736      15.771636
                                                         2.494033       4.936060
                                                         0.988355       0.960109
                                                         0.344978       0.116472
                                                         0.099466       0.003360
                          1       6    4dz2             10.077428       8.232726
                                                         5.847736       9.105758
                                                         2.494033       2.849835
                                                         0.988355       0.554319
                                                         0.344978       0.067245
                                                         0.099466       0.001940

                          1       7    5dx2             10.077428      -2.715373
                                                         5.847736      -4.020640
                                                         2.494033      -1.397569
                                                         0.988355      -0.076143
                                                         0.344978       0.033435
                                                         0.099466       0.026032
                          1       7    5dxy             10.077428      -4.703164
                                                         5.847736      -6.963952
                                                         2.494033      -2.420661
                                                         0.988355      -0.131883
                                                         0.344978       0.057911
                                                         0.099466       0.045088
                          1       7    5dxz             10.077428      -4.703164
                                                         5.847736      -6.963952
                                                         2.494033      -2.420661
                                                         0.988355      -0.131883
                                                         0.344978       0.057911
                                                         0.099466       0.045088
                          1       7    5dy2             10.077428      -2.715373
                                                         5.847736      -4.020640
                                                         2.494033      -1.397569
                                                         0.988355      -0.076143
                                                         0.344978       0.033435
                                                         0.099466       0.026032
                          1       7    5dyz             10.077428      -4.703164
                                                         5.847736      -6.963952
                                                         2.494033      -2.420661
                                                         0.988355      -0.131883
                                                         0.344978       0.057911
                                                         0.099466       0.045088
                          1       7    5dz2             10.077428      -2.715373
                                                         5.847736      -4.020640
                                                         2.494033      -1.397569
                                                         0.988355      -0.076143
                                                         0.344978       0.033435
                                                         0.099466       0.026032

                          1       8    5fx3             10.077428      -0.467694
                                                         5.847736       0.618100
                                                         2.494033       0.066069
                                                         0.988355       0.262898
                                                         0.344978       0.004720
                                                         0.099466       0.007748
                          1       8    5fx2y            10.077428      -1.045795
                                                         5.847736       1.382114
                                                         2.494033       0.147734
                                                         0.988355       0.587859
                                                         0.344978       0.010555
                                                         0.099466       0.017325
                          1       8    5fx2z            10.077428      -1.045795
                                                         5.847736       1.382114
                                                         2.494033       0.147734
                                                         0.988355       0.587859
                                                         0.344978       0.010555
                                                         0.099466       0.017325
                          1       8    5fxy2            10.077428      -1.045795
                                                         5.847736       1.382114
                                                         2.494033       0.147734
                                                         0.988355       0.587859
                                                         0.344978       0.010555
                                                         0.099466       0.017325
                          1       8    5fxyz            10.077428      -1.811371
                                                         5.847736       2.393892
                                                         2.494033       0.255883
                                                         0.988355       1.018201
                                                         0.344978       0.018282
                                                         0.099466       0.030008
                          1       8    5fxz2            10.077428      -1.045795
                                                         5.847736       1.382114
                                                         2.494033       0.147734
                                                         0.988355       0.587859
                                                         0.344978       0.010555
                                                         0.099466       0.017325
                          1       8    5fy3             10.077428      -0.467694
                                                         5.847736       0.618100
                                                         2.494033       0.066069
                                                         0.988355       0.262898
                                                         0.344978       0.004720
                                                         0.099466       0.007748
                          1       8    5fy2z            10.077428      -1.045795
                                                         5.847736       1.382114
                                                         2.494033       0.147734
                                                         0.988355       0.587859
                                                         0.344978       0.010555
                                                         0.099466       0.017325
                          1       8    5fyz2            10.077428      -1.045795
                                                         5.847736       1.382114
                                                         2.494033       0.147734
                                                         0.988355       0.587859
                                                         0.344978       0.010555
                                                         0.099466       0.017325
                          1       8    5fz3             10.077428      -0.467694
                                                         5.847736       0.618100
                                                         2.494033       0.066069
                                                         0.988355       0.262898
                                                         0.344978       0.004720
                                                         0.099466       0.007748

       Atomic covalent radius [Angstrom]:                                  1.150

       Atomic van der Waals radius [Angstrom]:                             1.630

     GTH Potential information for                                   GTH-PBE-q18

       Description:                       Goedecker-Teter-Hutter pseudopotential
                                           Goedecker et al., PRB 54, 1703 (1996)
                                          Hartwigsen et al., PRB 58, 3641 (1998)
                                                      Krack, TCA 114, 145 (2005)

       Gaussian exponent of the core charge distribution:               4.081633
       Electronic configuration (s p d ...):                           4   6   8

       Parameters of the local part of the GTH pseudopotential:

                          rloc        C1          C2          C3          C4
                        0.350000    2.102166    0.648484

       Parameters of the non-local part of the GTH pseudopotential:

                   l      r(l)      h(i,j,l)

                   0    0.261295    0.622658    9.970227
                                    9.970227  -12.871507
                   1    0.224253  -11.142708   12.429566
                                   12.429566  -14.706861
                   2    0.215348  -12.628146


 MOLECULE KIND INFORMATION


 All atoms are their own molecule, skipping detailed information


 TOTAL NUMBERS AND MAXIMUM NUMBERS

  Total number of            - Atomic kinds:                                   2
                             - Atoms:                                         32
                             - Shell sets:                                    32
                             - Shells:                                       256
                             - Primitive Cartesian functions:                192
                             - Cartesian basis functions:                    992
                             - Spherical basis functions:                    832

  Maximum angular momentum of- Orbital basis functions:                        3
                             - Local part of the GTH pseudopotential:          2
                             - Non-local part of the GTH pseudopotential:      3


 MODULE QUICKSTEP: ATOMIC COORDINATES IN ANGSTROM

   Atom Kind Element         X             Y             Z       Z(eff)     Mass
      1    1 Ni   28      0.876298      0.876298      7.370500  18.0000  58.6934
      2    1 Ni   28      0.876298      4.382298      7.370500  18.0000  58.6934
      3    1 Ni   28      2.629298      2.629298      7.370500  18.0000  58.6934
      4    1 Ni   28      2.629298      6.135298      7.370500  18.0000  58.6934
      5    1 Ni   28      4.382298      0.876298      7.370500  18.0000  58.6934
      6    1 Ni   28      4.382298      4.382298      7.370500  18.0000  58.6934
      7    1 Ni   28      6.135298      2.629298      7.370500  18.0000  58.6934
      8    1 Ni   28      6.135298      6.135298      7.370500  18.0000  58.6934
      9    2 Ni   28      0.876298      2.629298      9.123500  18.0000  58.6934
     10    2 Ni   28      0.876298      6.135298      9.123500  18.0000  58.6934
     11    2 Ni   28      2.629298      0.876298      9.123500  18.0000  58.6934
     12    2 Ni   28      2.629298      4.382298      9.123500  18.0000  58.6934
     13    2 Ni   28      4.382298      2.629298      9.123500  18.0000  58.6934
     14    2 Ni   28      4.382298      6.135298      9.123500  18.0000  58.6934
     15    2 Ni   28      6.135298      0.876298      9.123500  18.0000  58.6934
     16    2 Ni   28      6.135298      4.382298      9.123500  18.0000  58.6934
     17    2 Ni   28      0.876298      0.876298     10.876500  18.0000  58.6934
     18    2 Ni   28      0.876298      4.382298     10.876500  18.0000  58.6934
     19    2 Ni   28      2.629298      2.629298     10.876500  18.0000  58.6934
     20    2 Ni   28      2.629298      6.135298     10.876500  18.0000  58.6934
     21    2 Ni   28      4.382298      0.876298     10.876500  18.0000  58.6934
     22    2 Ni   28      4.382298      4.382298     10.876500  18.0000  58.6934
     23    2 Ni   28      6.135298      2.629298     10.876500  18.0000  58.6934
     24    2 Ni   28      6.135298      6.135298     10.876500  18.0000  58.6934
     25    1 Ni   28      0.876298      2.629298     12.629500  18.0000  58.6934
     26    1 Ni   28      0.876298      6.135298     12.629500  18.0000  58.6934
     27    1 Ni   28      2.629298      0.876298     12.629500  18.0000  58.6934
     28    1 Ni   28      2.629298      4.382298     12.629500  18.0000  58.6934
     29    1 Ni   28      4.382298      2.629298     12.629500  18.0000  58.6934
     30    1 Ni   28      4.382298      6.135298     12.629500  18.0000  58.6934
     31    1 Ni   28      6.135298      0.876298     12.629500  18.0000  58.6934
     32    1 Ni   28      6.135298      4.382298     12.629500  18.0000  58.6934



 SCF PARAMETERS         Density guess:                                    ATOMIC
                        --------------------------------------------------------
                        max_scf:                                             500
                        max_scf_history:                                       0
                        max_diis:                                              4
                        --------------------------------------------------------
                        eps_scf:                                        1.00E-04
                        eps_scf_history:                                0.00E+00
                        eps_diis:                                       1.00E-01
                        eps_eigval:                                     1.00E-05
                        --------------------------------------------------------
                        level_shift [a.u.]:                             0.000000
                        added MOs                                       536  551
                        --------------------------------------------------------
                        Mixing method:                            BROYDEN_MIXING
                                                charge density mixing in g-space
                        --------------------------------------------------------
                        Smear method:                                FERMI_DIRAC
                        Electronic temperature [K]:                       2000.0
                        Electronic temperature [a.u.]:                  6.33E-03
                        Accuracy threshold:                             1.00E-10
                        --------------------------------------------------------
                        No outer SCF

 PW_GRID| Information for grid number                                          1
 PW_GRID| Grid distributed over                                   128 processors
 PW_GRID| Real space group dimensions                                     8   16
 PW_GRID| the grid is blocked:                                               YES
 PW_GRID| Cutoff [a.u.]                                                    300.0
 PW_GRID| spherical cutoff:                                                   NO
 PW_GRID|   Bounds   1            -54      53                Points:         108
 PW_GRID|   Bounds   2            -54      53                Points:         108
 PW_GRID|   Bounds   3           -150     149                Points:         300
 PW_GRID| Volume element (a.u.^3)  0.1896E-02     Volume (a.u.^3)      6635.2971
 PW_GRID| Grid span                                                    FULLSPACE
 PW_GRID|   Distribution                         Average         Max         Min
 PW_GRID|   G-Vectors                            27337.5       28728       25272
 PW_GRID|   G-Rays                                 253.1         266         234
 PW_GRID|   Real Space Points                    27337.5       28728       25272

 PW_GRID| Information for grid number                                          2
 PW_GRID| Number of the reference grid                                         1
 PW_GRID| Grid distributed over                                   128 processors
 PW_GRID| Real space group dimensions                                     8   16
 PW_GRID| the grid is blocked:                                                NO
 PW_GRID| Cutoff [a.u.]                                                    100.0
 PW_GRID| spherical cutoff:                                                   NO
 PW_GRID|   Bounds   1            -30      29                Points:          60
 PW_GRID|   Bounds   2            -30      29                Points:          60
 PW_GRID|   Bounds   3            -90      89                Points:         180
 PW_GRID| Volume element (a.u.^3)  0.1024E-01     Volume (a.u.^3)      6635.2971
 PW_GRID| Grid span                                                    FULLSPACE
 PW_GRID|   Distribution                         Average         Max         Min
 PW_GRID|   G-Vectors                             5062.5       15960           0
 PW_GRID|   G-Rays                                  84.4         266           0
 PW_GRID|   Real Space Points                     5062.5        5760        3780

 PW_GRID| Information for grid number                                          3
 PW_GRID| Number of the reference grid                                         1
 PW_GRID| Grid distributed over                                   128 processors
 PW_GRID| Real space group dimensions                                     8   16
 PW_GRID| the grid is blocked:                                                NO
 PW_GRID| Cutoff [a.u.]                                                     33.3
 PW_GRID| spherical cutoff:                                                   NO
 PW_GRID|   Bounds   1            -18      17                Points:          36
 PW_GRID|   Bounds   2            -18      17                Points:          36
 PW_GRID|   Bounds   3            -50      49                Points:         100
 PW_GRID| Volume element (a.u.^3)  0.5120E-01     Volume (a.u.^3)      6635.2971
 PW_GRID| Grid span                                                    FULLSPACE
 PW_GRID|   Distribution                         Average         Max         Min
 PW_GRID|   G-Vectors                             1012.5        9576           0
 PW_GRID|   G-Rays                                  28.1         266           0
 PW_GRID|   Real Space Points                     1012.5        1500         800

 PW_GRID| Information for grid number                                          4
 PW_GRID| Number of the reference grid                                         1
 PW_GRID| Grid distributed over                                   128 processors
 PW_GRID| Real space group dimensions                                     8   16
 PW_GRID| the grid is blocked:                                                NO
 PW_GRID| Cutoff [a.u.]                                                     11.1
 PW_GRID| spherical cutoff:                                                   NO
 PW_GRID|   Bounds   1            -10       9                Points:          20
 PW_GRID|   Bounds   2            -10       9                Points:          20
 PW_GRID|   Bounds   3            -30      29                Points:          60
 PW_GRID| Volume element (a.u.^3)  0.2765         Volume (a.u.^3)      6635.2971
 PW_GRID| Grid span                                                    FULLSPACE
 PW_GRID|   Distribution                         Average         Max         Min
 PW_GRID|   G-Vectors                              187.5        3800           0
 PW_GRID|   G-Rays                                   9.4         190           0
 PW_GRID|   Real Space Points                      187.5         360         120

 PW_GRID| Information for grid number                                          5
 PW_GRID| Number of the reference grid                                         1
 PW_GRID| Grid distributed over                                   128 processors
 PW_GRID| Real space group dimensions                                     8   16
 PW_GRID| the grid is blocked:                                                NO
 PW_GRID| Cutoff [a.u.]                                                      3.7
 PW_GRID| spherical cutoff:                                                   NO
 PW_GRID|   Bounds   1             -6       5                Points:          12
 PW_GRID|   Bounds   2             -6       5                Points:          12
 PW_GRID|   Bounds   3            -18      17                Points:          36
 PW_GRID| Volume element (a.u.^3)   1.280         Volume (a.u.^3)      6635.2971
 PW_GRID| Grid span                                                    FULLSPACE
 PW_GRID|   Distribution                         Average         Max         Min
 PW_GRID|   G-Vectors                               40.5        1296           0
 PW_GRID|   G-Rays                                   3.4         108           0
 PW_GRID|   Real Space Points                       40.5          72           0

 POISSON| Solver                                                        PERIODIC
 POISSON| Periodicity                                                        XYZ

 RS_GRID| Information for grid number                                          1
 RS_GRID|   Bounds   1            -54      53                Points:         108
 RS_GRID|   Bounds   2            -54      53                Points:         108
 RS_GRID|   Bounds   3           -150     149                Points:         300
 RS_GRID| Real space distribution over                                  8 groups
 RS_GRID| Real space distribution along direction                              2
 RS_GRID| Border size                                                         28
 RS_GRID| Real space distribution over                                 16 groups
 RS_GRID| Real space distribution along direction                              3
 RS_GRID| Border size                                                         28
 RS_GRID|   Distribution                         Average         Max         Min
 RS_GRID|   Planes                                  69.5          70          69
 RS_GRID|   Distribution                         Average         Max         Min
 RS_GRID|   Planes                                  74.8          75          74

 RS_GRID| Information for grid number                                          2
 RS_GRID|   Bounds   1            -30      29                Points:          60
 RS_GRID|   Bounds   2            -30      29                Points:          60
 RS_GRID|   Bounds   3            -90      89                Points:         180
 RS_GRID| Real space fully replicated
 RS_GRID| Group size                                                           1

 RS_GRID| Information for grid number                                          3
 RS_GRID|   Bounds   1            -18      17                Points:          36
 RS_GRID|   Bounds   2            -18      17                Points:          36
 RS_GRID|   Bounds   3            -50      49                Points:         100
 RS_GRID| Real space fully replicated
 RS_GRID| Group size                                                           1

 RS_GRID| Information for grid number                                          4
 RS_GRID|   Bounds   1            -10       9                Points:          20
 RS_GRID|   Bounds   2            -10       9                Points:          20
 RS_GRID|   Bounds   3            -30      29                Points:          60
 RS_GRID| Real space fully replicated
 RS_GRID| Group size                                                           1

 RS_GRID| Information for grid number                                          5
 RS_GRID|   Bounds   1             -6       5                Points:          12
 RS_GRID|   Bounds   2             -6       5                Points:          12
 RS_GRID|   Bounds   3            -18      17                Points:          36
 RS_GRID| Real space fully replicated
 RS_GRID| Group size                                                           1

 Spin 1

 Number of electrons:                                                        295.280
 Number of occupied orbitals:                                                296
 Number of molecular orbitals:                                               832

 Spin 2

 Number of electrons:                                                        280.720
 Number of occupied orbitals:                                                281
 Number of molecular orbitals:                                               832

 Number of orbital functions:                                                832
 Number of independent orbital functions:                                    832

 Extrapolation method: initial_guess

 Atomic guess: The first density matrix is obtained in terms of atomic orbitals
               and electronic configurations assigned to each atomic kind

 Guess for atomic kind: Ni_i

 Electronic structure
    Total number of core electrons                                         10.00
    Total number of valence electrons                                      18.00
    Total number of electrons                                              28.00
    Multiplicity                                                         doublet
    Alpha Electrons
    S   [  1.00  1.00] 1.00  1.00
    P   [  3.00] 3.00
    D      4.35
    Beta Electrons
    S   [  1.00  1.00] 1.00  1.00
    P   [  3.00] 3.00
    D      3.65


 *******************************************************************************
                  Iteration          Convergence                     Energy [au]
 *******************************************************************************
                          1         1.51729                    -167.067424631347
                          2         15.3902                    -156.642654318634
                          3         2.33433                    -168.319355313541
                          4        0.206730                    -168.609905008081
                          5        0.814175E-01                -168.612873080494
                          6        0.173318E-01                -168.613470181066
                          7        0.290432E-02                -168.613543571401
                          8        0.311825E-02                -168.613543401474
                          9        0.179670E-03                -168.613544404477
                         10        0.169386E-02                -168.613544207811
                         11        0.473341E-03                -168.613544360253
                         12        0.165417E-03                -168.613544400419
                         13        0.162622E-03                -168.613544401489
                         14        0.158325E-03                -168.613544403900
                         15        0.177007E-03                -168.613544402509
                         16        0.138916E-03                -168.613544404900
                         17        0.934549E-04                -168.613544406149
                         18        0.119916E-03                -168.613544405789
                         19        0.131607E-03                -168.613544405591
                         20        0.169309E-03                -168.613544404773
                         21        0.551337E-04                -168.613544406656
                         22        0.382664E-04                -168.613544406759
                         23        0.378942E-04                -168.613544406765
                         24        0.381089E-04                -168.613544406765
                         25        0.390835E-04                -168.613544406759
                         26        0.308614E-04                -168.613544406841
                         27        0.205044E-04                -168.613544406892
                         28        0.200942E-04                -168.613544406893
                         29        0.199375E-04                -168.613544406893
                         30        0.200198E-04                -168.613544406894
                         31        0.161325E-04                -168.613544406903
                         32        0.330614E-05                -168.613544406925
                         33        0.238713E-05                -168.613544406926
                         34        0.265439E-05                -168.613544406926
                         35        0.277073E-05                -168.613544406926
                         36        0.335175E-05                -168.613544406926
                         37        0.148809E-05                -168.613544406927
                         38        0.133447E-05                -168.613544406927
                         39        0.918735E-06                -168.613544406927

 Energy components [Hartree]           Total Energy ::         -168.613544406927
                                        Band Energy ::          -26.569761966525
                                     Kinetic Energy ::           97.306723392622
                                   Potential Energy ::         -265.920267799548
                                      Virial (-V/T) ::            2.732804666812
                                        Core Energy ::         -299.567979157577
                                          XC Energy ::          -16.227189041387
                                     Coulomb Energy ::          147.181623792037
                       Total Pseudopotential Energy ::         -396.961043505191
                       Local Pseudopotential Energy ::         -362.648291121960
                    Nonlocal Pseudopotential Energy ::          -34.312752383230
                                        Confinement ::            0.863409549921

 Orbital energies  State     Spin  L     Occupation   Energy[a.u.]    Energy[eV]

                       1    alpha  0          1.000      -4.172666   -113.544030
                       2    alpha  0          1.000      -0.181431     -4.936983
                       1     beta  0          1.000      -4.140640   -112.672541
                       2     beta  0          1.000      -0.176372     -4.799339

                       1    alpha  1          3.000      -2.578739    -70.171064
                       1     beta  1          3.000      -2.547579    -69.323162

                       1    alpha  2          4.350      -0.327039     -8.899191
                       1     beta  2          3.650      -0.300569     -8.178887


 Total Electron Density at R=0:                                         0.030422

 Guess for atomic kind: Ni_b

 Electronic structure
    Total number of core electrons                                         10.00
    Total number of valence electrons                                      18.00
    Total number of electrons                                              28.00
    Multiplicity                                                         singlet
    Alpha Electrons
    S   [  1.00  1.00] 1.00  1.00
    P   [  3.00] 3.00
    D      4.11
    Beta Electrons
    S   [  1.00  1.00] 1.00  1.00
    P   [  3.00] 3.00
    D      3.90


 *******************************************************************************
                  Iteration          Convergence                     Energy [au]
 *******************************************************************************
                          1         1.51624                    -167.062943818962
                          2         14.3853                    -156.601345162267
                          3         2.14002                    -168.315545931368
                          4        0.162752                    -168.606229330260
                          5        0.546071E-01                -168.608972730607
                          6        0.640061E-02                -168.609322106215
                          7        0.353521E-02                -168.609327254131
                          8        0.355117E-02                -168.609327591413
                          9        0.850138E-03                -168.609328676964
                         10        0.762693E-03                -168.609328744734
                         11        0.566010E-03                -168.609328738871
                         12        0.849919E-03                -168.609328737932
                         13        0.462893E-03                -168.609328777600
                         14        0.306248E-03                -168.609328791026
                         15        0.204562E-03                -168.609328796543
                         16        0.244546E-03                -168.609328801443
                         17        0.380007E-03                -168.609328795380
                         18        0.289381E-03                -168.609328799635
                         19        0.210212E-03                -168.609328802573
                         20        0.933467E-04                -168.609328805366
                         21        0.116485E-03                -168.609328806029
                         22        0.116704E-03                -168.609328806047
                         23        0.125713E-03                -168.609328805885
                         24        0.124727E-03                -168.609328805897
                         25        0.107657E-03                -168.609328806211
                         26        0.816821E-04                -168.609328806776
                         27        0.525353E-04                -168.609328807153
                         28        0.523680E-04                -168.609328807154
                         29        0.528962E-04                -168.609328807149
                         30        0.535419E-04                -168.609328807144
                         31        0.556039E-04                -168.609328807126
                         32        0.350578E-04                -168.609328807277
                         33        0.212296E-04                -168.609328807359
                         34        0.212579E-04                -168.609328807359
                         35        0.212761E-04                -168.609328807359
                         36        0.212516E-04                -168.609328807359
                         37        0.167359E-04                -168.609328807373
                         38        0.390489E-05                -168.609328807401
                         39        0.258753E-05                -168.609328807402
                         40        0.283670E-05                -168.609328807403
                         41        0.295012E-05                -168.609328807403
                         42        0.343572E-05                -168.609328807403
                         43        0.187083E-05                -168.609328807403
                         44        0.158251E-05                -168.609328807403
                         45        0.106215E-05                -168.609328807404
                         46        0.407693E-06                -168.609328807403

 Energy components [Hartree]           Total Energy ::         -168.609328807403
                                        Band Energy ::          -26.567743014255
                                     Kinetic Energy ::           97.301030584152
                                   Potential Energy ::         -265.910359391555
                                      Virial (-V/T) ::            2.732862722986
                                        Core Energy ::         -299.564654088411
                                          XC Energy ::          -16.222365374849
                                     Coulomb Energy ::          147.177690655857
                       Total Pseudopotential Energy ::         -396.952024991954
                       Local Pseudopotential Energy ::         -362.642256869511
                    Nonlocal Pseudopotential Energy ::          -34.309768122443
                                        Confinement ::            0.863403193913

[...]
   126 Broy./Diag. 0.80E-01    1.5     0.01172866     -5417.3061142116 -4.09E-01
   127 Broy./Diag. 0.80E-01    1.5     0.01537794     -5417.5285630238 -2.22E-01
   128 Broy./Diag. 0.80E-01    1.5     0.00521177     -5416.9478267974  5.81E-01
   129 Broy./Diag. 0.80E-01    1.5     0.00805505     -5416.8389995621  1.09E-01
   130 Broy./Diag. 0.80E-01    1.5     0.01533172     -5416.2312706688  6.08E-01
   131 Broy./Diag. 0.80E-01    1.5     0.02458420     -5415.9340026369  2.97E-01
   132 Broy./Diag. 0.80E-01    1.5     0.01077817     -5416.3932158682 -4.59E-01
   133 Broy./Diag. 0.80E-01    1.5     0.00459113     -5417.0491436805 -6.56E-01
   134 Broy./Diag. 0.80E-01    1.5     0.01558989     -5417.6346932472 -5.86E-01
   135 Broy./Diag. 0.80E-01    1.5     0.00828856     -5417.5125669670  1.22E-01
   136 Broy./Diag. 0.80E-01    1.5     0.00570899     -5419.1754031402 -1.66E+00
   137 Broy./Diag. 0.80E-01    1.5     0.00920340     -5418.5387984134  6.37E-01
   138 Broy./Diag. 0.80E-01    1.5     0.00421850     -5418.2936292365  2.45E-01
   139 Broy./Diag. 0.80E-01    1.5     0.06714836     -5418.9267471649 -6.33E-01
   140 Broy./Diag. 0.80E-01    1.5     0.02435209     -5417.9589474517  9.68E-01
   141 Broy./Diag. 0.80E-01    1.5     0.00789125     -5420.1794327253 -2.22E+00
   142 Broy./Diag. 0.80E-01    1.5     0.01373633     -5417.4316682260  2.75E+00
   143 Broy./Diag. 0.80E-01    1.5     0.02021396     -5420.8979990790 -3.47E+00
   144 Broy./Diag. 0.80E-01    1.5     0.00831745     -5419.2558668293  1.64E+00
   145 Broy./Diag. 0.80E-01    1.5     0.00757966     -5418.6001768731  6.56E-01
   146 Broy./Diag. 0.80E-01    1.5     0.00972550     -5418.0732676683  5.27E-01
   147 Broy./Diag. 0.80E-01    1.5     0.00926394     -5417.4905952807  5.83E-01
   148 Broy./Diag. 0.80E-01    1.5     0.00475421     -5417.4551009235  3.55E-02
   149 Broy./Diag. 0.80E-01    1.5     0.02408360     -5417.4303896983  2.47E-02
   150 Broy./Diag. 0.80E-01    1.5     0.00157636     -5417.4436962268 -1.33E-02
   151 Broy./Diag. 0.80E-01    1.5     0.00757331     -5417.5794938676 -1.36E-01
   152 Broy./Diag. 0.80E-01    1.5     0.00378508     -5417.6036685387 -2.42E-02
   153 Broy./Diag. 0.80E-01    1.5     0.01343829     -5417.6133924906 -9.72E-03
   154 Broy./Diag. 0.80E-01    1.5     0.01466338     -5417.6128185226  5.74E-04
   155 Broy./Diag. 0.80E-01    1.5     0.01712703     -5417.6225066221 -9.69E-03
   156 Broy./Diag. 0.80E-01    1.5     0.03670884     -5416.9455698141  6.77E-01
   157 Broy./Diag. 0.80E-01    1.5     0.00926193     -5416.6250270518  3.21E-01
   158 Broy./Diag. 0.80E-01    1.5     0.01082968     -5416.8293344458 -2.04E-01
   159 Broy./Diag. 0.80E-01    1.5     0.03041567     -5417.0495810527 -2.20E-01
   160 Broy./Diag. 0.80E-01    1.5     0.06697162     -5416.0684991766  9.81E-01
   161 Broy./Diag. 0.80E-01    1.5     0.05632472     -5417.0097099491 -9.41E-01
   162 Broy./Diag. 0.80E-01    1.5     0.02165602     -5418.1174733598 -1.11E+00
   163 Broy./Diag. 0.80E-01    1.5     0.08598463     -5417.9151832177  2.02E-01
   164 Broy./Diag. 0.80E-01    1.5     0.03028240     -5416.7442834792  1.17E+00
   165 Broy./Diag. 0.80E-01    1.5     0.03643574     -5417.6833604262 -9.39E-01
   166 Broy./Diag. 0.80E-01    1.5     0.02208507     -5417.8126722401 -1.29E-01
   167 Broy./Diag. 0.80E-01    1.5     0.04868325     -5416.9466301296  8.66E-01
   168 Broy./Diag. 0.80E-01    1.5     0.01497639     -5416.5761401616  3.70E-01
   169 Broy./Diag. 0.80E-01    1.5     0.03582258     -5416.3258389846  2.50E-01
   170 Broy./Diag. 0.80E-01    1.5     0.06770106     -5416.6396756866 -3.14E-01
   171 Broy./Diag. 0.80E-01    1.5     0.02545531     -5416.3192173717  3.20E-01
   172 Broy./Diag. 0.80E-01    1.5     0.03227641     -5417.1064447338 -7.87E-01
   173 Broy./Diag. 0.80E-01    1.5     0.04672545     -5417.0677293642  3.87E-02
   174 Broy./Diag. 0.80E-01    1.5     0.03347977     -5417.0839473987 -1.62E-02
   175 Broy./Diag. 0.80E-01    1.5     0.01320861     -5417.8043882189 -7.20E-01
   176 Broy./Diag. 0.80E-01    1.5     0.03294266     -5417.5461306991  2.58E-01
   177 Broy./Diag. 0.80E-01    1.5     0.04589569     -5417.6945069147 -1.48E-01
   178 Broy./Diag. 0.80E-01    1.5     0.08874935     -5417.7874258715 -9.29E-02
   179 Broy./Diag. 0.80E-01    1.5     0.07725928     -5415.6654347368  2.12E+00
   180 Broy./Diag. 0.80E-01    1.5     0.21509644     -5416.7221710648 -1.06E+00
   181 Broy./Diag. 0.80E-01    1.5     0.02227883     -5416.6712287515  5.09E-02
   182 Broy./Diag. 0.80E-01    1.5     0.04682641     -5416.5496514176  1.22E-01
   183 Broy./Diag. 0.80E-01    1.5     0.02047738     -5416.2900705462  2.60E-01
   184 Broy./Diag. 0.80E-01    1.5     0.07674898     -5416.9851090346 -6.95E-01
   185 Broy./Diag. 0.80E-01    1.5     0.02706022     -5417.3371232654 -3.52E-01
   186 Broy./Diag. 0.80E-01    1.5     0.13763057     -5417.1759070483  1.61E-01
   187 Broy./Diag. 0.80E-01    1.5     0.00892838     -5417.1219168805  5.40E-02
   188 Broy./Diag. 0.80E-01    1.5     0.06162161     -5417.2540767571 -1.32E-01
   189 Broy./Diag. 0.80E-01    1.5     0.03388249     -5417.6571382021 -4.03E-01
   190 Broy./Diag. 0.80E-01    1.5     0.02338430     -5418.0206386897 -3.64E-01
   191 Broy./Diag. 0.80E-01    1.5     0.01223333     -5418.8515713693 -8.31E-01
   192 Broy./Diag. 0.80E-01    1.5     0.01257334     -5418.7140273193  1.38E-01
   193 Broy./Diag. 0.80E-01    1.5     0.00637857     -5418.3692731767  3.45E-01
   194 Broy./Diag. 0.80E-01    1.5     0.02342580     -5418.6371320086 -2.68E-01
   195 Broy./Diag. 0.80E-01    1.5     0.08391558     -5418.5306849695  1.06E-01
   196 Broy./Diag. 0.80E-01    1.5     0.00655033     -5418.6214019347 -9.07E-02
   197 Broy./Diag. 0.80E-01    1.5     0.02187455     -5419.3247408701 -7.03E-01
   198 Broy./Diag. 0.80E-01    1.5     0.06077306     -5418.9965905308  3.28E-01
   199 Broy./Diag. 0.80E-01    1.5     0.03455491     -5416.9356398829  2.06E+00
   200 Broy./Diag. 0.80E-01    1.5     0.04118944     -5415.2039602548  1.73E+00
   201 Broy./Diag. 0.80E-01    1.5     0.02270536     -5415.8819010653 -6.78E-01
   202 Broy./Diag. 0.80E-01    1.5     0.03225698     -5416.8664149168 -9.85E-01
   203 Broy./Diag. 0.80E-01    1.5     0.01600356     -5418.9020327939 -2.04E+00
   204 Broy./Diag. 0.80E-01    1.5     0.03952942     -5418.4747342793  4.27E-01
   205 Broy./Diag. 0.80E-01    1.5     0.03807799     -5417.9390410024  5.36E-01
   206 Broy./Diag. 0.80E-01    1.5     0.04299470     -5418.1993208770 -2.60E-01
   207 Broy./Diag. 0.80E-01    1.5     0.04213060     -5417.9354986993  2.64E-01
   208 Broy./Diag. 0.80E-01    1.5     0.04496318     -5417.9410276210 -5.53E-03
   209 Broy./Diag. 0.80E-01    1.5     0.01658124     -5418.8350747668 -8.94E-01
   210 Broy./Diag. 0.80E-01    1.5     0.07798930     -5419.0687530407 -2.34E-01
   211 Broy./Diag. 0.80E-01    1.5     0.05674536     -5418.6688317870  4.00E-01
   212 Broy./Diag. 0.80E-01    1.5     0.01993253     -5418.7232410249 -5.44E-02
   213 Broy./Diag. 0.80E-01    1.5     0.01089905     -5418.3825128444  3.41E-01
   214 Broy./Diag. 0.80E-01    1.5     0.00811081     -5418.7602177286 -3.78E-01
   215 Broy./Diag. 0.80E-01    1.5     0.03499271     -5419.6819912254 -9.22E-01
   216 Broy./Diag. 0.80E-01    1.5     0.04197648     -5419.3705541552  3.11E-01
   217 Broy./Diag. 0.80E-01    1.5     0.00499407     -5418.5530710331  8.17E-01
   218 Broy./Diag. 0.80E-01    1.5     0.00447932     -5418.5418478684  1.12E-02
   219 Broy./Diag. 0.80E-01    1.5     0.02604349     -5418.6364187244 -9.46E-02
   220 Broy./Diag. 0.80E-01    1.5     0.02049667     -5418.3287154701  3.08E-01
   221 Broy./Diag. 0.80E-01    1.5     0.01522273     -5418.7001702163 -3.71E-01
   222 Broy./Diag. 0.80E-01    1.5     0.01972801     -5418.9711392099 -2.71E-01
   223 Broy./Diag. 0.80E-01    1.5     0.02754287     -5418.9160864967  5.51E-02
   224 Broy./Diag. 0.80E-01    1.5     0.03759602     -5421.0851580972 -2.17E+00
   225 Broy./Diag. 0.80E-01    1.5     0.00743687     -5418.9881996833  2.10E+00
   226 Broy./Diag. 0.80E-01    1.5     0.01758891     -5419.1604190060 -1.72E-01
   227 Broy./Diag. 0.80E-01    1.5     0.01459095     -5420.2468635997 -1.09E+00
   228 Broy./Diag. 0.80E-01    1.5     0.02629885     -5418.7339345477  1.51E+00
   229 Broy./Diag. 0.80E-01    1.5     0.02472367     -5418.3520763714  3.82E-01
   230 Broy./Diag. 0.80E-01    1.5     0.01618366     -5418.7966556535 -4.45E-01
   231 Broy./Diag. 0.80E-01    1.5     0.04267982     -5418.9183304343 -1.22E-01
   232 Broy./Diag. 0.80E-01    1.5     0.03971905     -5418.7339378789  1.84E-01
   233 Broy./Diag. 0.80E-01    1.5     0.06745255     -5418.0462412263  6.88E-01
   234 Broy./Diag. 0.80E-01    1.5     0.05288031     -5417.9597268838  8.65E-02
   235 Broy./Diag. 0.80E-01    1.5     0.03529443     -5419.2456017442 -1.29E+00
   236 Broy./Diag. 0.80E-01    1.5     0.02566722     -5418.8542969669  3.91E-01
   237 Broy./Diag. 0.80E-01    1.5     0.06584961     -5419.1151114265 -2.61E-01
   238 Broy./Diag. 0.80E-01    1.5     0.10005123     -5417.0080971363  2.11E+00
   239 Broy./Diag. 0.80E-01    1.5     0.03046206     -5416.9148935416  9.32E-02
   240 Broy./Diag. 0.80E-01    1.5     0.08479454     -5418.0664443851 -1.15E+00
   241 Broy./Diag. 0.80E-01    1.5     0.05867792     -5417.9600686087  1.06E-01
   242 Broy./Diag. 0.80E-01    1.5     0.02744593     -5418.2654772596 -3.05E-01
   243 Broy./Diag. 0.80E-01    1.5     0.04218006     -5416.3504677432  1.92E+00
   244 Broy./Diag. 0.80E-01    1.5     0.07694739     -5415.4947816568  8.56E-01
   245 Broy./Diag. 0.80E-01    1.5     0.05614346     -5415.4281967209  6.66E-02
   246 Broy./Diag. 0.80E-01    1.5     0.06285026     -5418.9939463823 -3.57E+00
   247 Broy./Diag. 0.80E-01    1.5     0.03632076     -5418.7353815304  2.59E-01
   248 Broy./Diag. 0.80E-01    1.5     0.08324503     -5419.4823009077 -7.47E-01
   249 Broy./Diag. 0.80E-01    1.5     0.01682207     -5420.3628957666 -8.81E-01
   250 Broy./Diag. 0.80E-01    1.5     0.00374460     -5419.2667513937  1.10E+00
   251 Broy./Diag. 0.80E-01    1.5     0.02540640     -5419.7076544165 -4.41E-01
   252 Broy./Diag. 0.80E-01    1.5     0.06069743     -5419.1098424121  5.98E-01
   253 Broy./Diag. 0.80E-01    1.5     0.03192613     -5418.1388073199  9.71E-01
   254 Broy./Diag. 0.80E-01    1.5     0.03864287     -5419.2953856943 -1.16E+00
   255 Broy./Diag. 0.80E-01    1.5     0.01734243     -5420.1296396985 -8.34E-01
   256 Broy./Diag. 0.80E-01    1.5     0.08459965     -5419.7811371067  3.49E-01
   257 Broy./Diag. 0.80E-01    1.5     0.02695772     -5419.8847937404 -1.04E-01
   258 Broy./Diag. 0.80E-01    1.5     0.02662394     -5419.2418976349  6.43E-01
   259 Broy./Diag. 0.80E-01    1.5     0.02839781     -5417.5458083453  1.70E+00
   260 Broy./Diag. 0.80E-01    1.5     0.01725023     -5417.0352122266  5.11E-01
   261 Broy./Diag. 0.80E-01    1.5     0.01500569     -5416.7339352034  3.01E-01
   262 Broy./Diag. 0.80E-01    1.5     0.00677271     -5416.7845797978 -5.06E-02
   263 Broy./Diag. 0.80E-01    1.5     0.03489701     -5416.6747476747  1.10E-01
   264 Broy./Diag. 0.80E-01    1.5     0.00531163     -5417.6520800899 -9.77E-01
   265 Broy./Diag. 0.80E-01    1.5     0.07174111     -5417.6634638291 -1.14E-02
   266 Broy./Diag. 0.80E-01    1.5     0.01981556     -5417.8524167438 -1.89E-01
   267 Broy./Diag. 0.80E-01    1.5     0.02306659     -5417.9804464469 -1.28E-01
   268 Broy./Diag. 0.80E-01    1.5     0.02476303     -5417.6602451624  3.20E-01
   269 Broy./Diag. 0.80E-01    1.5     0.00701942     -5417.0805267776  5.80E-01
   270 Broy./Diag. 0.80E-01    1.5     0.02708574     -5416.9529107252  1.28E-01
   271 Broy./Diag. 0.80E-01    1.5     0.04775475     -5416.3567835241  5.96E-01
   272 Broy./Diag. 0.80E-01    1.5     0.04700726     -5418.2635570419 -1.91E+00
   273 Broy./Diag. 0.80E-01    1.5     0.02916519     -5417.7445045404  5.19E-01
   274 Broy./Diag. 0.80E-01    1.5     0.01233464     -5417.8884963888 -1.44E-01
   275 Broy./Diag. 0.80E-01    1.5     0.01347386     -5418.0790982219 -1.91E-01
   276 Broy./Diag. 0.80E-01    1.5     0.03959528     -5418.1127514219 -3.37E-02
   277 Broy./Diag. 0.80E-01    1.5     0.02143636     -5419.6117638213 -1.50E+00
   278 Broy./Diag. 0.80E-01    1.5     0.00869735     -5419.5699044673  4.19E-02
   279 Broy./Diag. 0.80E-01    1.5     0.02237661     -5419.3653133115  2.05E-01
   280 Broy./Diag. 0.80E-01    1.5     0.04545792     -5418.9510871458  4.14E-01
   281 Broy./Diag. 0.80E-01    1.5     0.02841743     -5416.7431222830  2.21E+00
   282 Broy./Diag. 0.80E-01    1.5     0.01433203     -5417.5499795760 -8.07E-01
   283 Broy./Diag. 0.80E-01    1.5     0.05559729     -5416.6382202892  9.12E-01
   284 Broy./Diag. 0.80E-01    1.5     0.01020576     -5417.9895248357 -1.35E+00
   285 Broy./Diag. 0.80E-01    1.5     0.01954031     -5417.4995251168  4.90E-01
   286 Broy./Diag. 0.80E-01    1.5     0.03159407     -5416.9081585378  5.91E-01
   287 Broy./Diag. 0.80E-01    1.5     0.02750547     -5416.8923744582  1.58E-02
   288 Broy./Diag. 0.80E-01    1.5     0.02421859     -5417.7207168080 -8.28E-01
   289 Broy./Diag. 0.80E-01    1.5     0.01395441     -5418.5428640643 -8.22E-01
   290 Broy./Diag. 0.80E-01    1.5     0.02843800     -5418.2785854154  2.64E-01
   291 Broy./Diag. 0.80E-01    1.5     0.01783039     -5418.2289702002  4.96E-02
   292 Broy./Diag. 0.80E-01    1.5     0.04439850     -5418.4431987683 -2.14E-01
   293 Broy./Diag. 0.80E-01    1.5     0.06678191     -5418.5654644900 -1.22E-01
   294 Broy./Diag. 0.80E-01    1.5     0.05980422     -5416.7386569045  1.83E+00
   295 Broy./Diag. 0.80E-01    1.5     0.06714387     -5417.3479534374 -6.09E-01
   296 Broy./Diag. 0.80E-01    1.5     0.09107595     -5417.3217228743  2.62E-02
   297 Broy./Diag. 0.80E-01    1.5     0.04174642     -5417.4507264591 -1.29E-01
   298 Broy./Diag. 0.80E-01    1.5     0.09245815     -5417.2380348958  2.13E-01
   299 Broy./Diag. 0.80E-01    1.5     0.10716476     -5416.8442360686  3.94E-01
   300 Broy./Diag. 0.80E-01    1.5     0.10943762     -5415.4845232069  1.36E+00
   301 Broy./Diag. 0.80E-01    1.5     0.14640773     -5414.9850045976  5.00E-01
   302 Broy./Diag. 0.80E-01    1.5     0.09765118     -5416.3408796111 -1.36E+00
   303 Broy./Diag. 0.80E-01    1.5     0.03893102     -5418.3929103595 -2.05E+00
   304 Broy./Diag. 0.80E-01    1.5     0.11224562     -5418.0555994881  3.37E-01
   305 Broy./Diag. 0.80E-01    1.6     0.04088709     -5414.6461601802  3.41E+00
   306 Broy./Diag. 0.80E-01    1.5     0.04375660     -5417.5416488142 -2.90E+00
   307 Broy./Diag. 0.80E-01    1.5     0.05219962     -5418.4169116455 -8.75E-01
   308 Broy./Diag. 0.80E-01    1.5     0.11217899     -5418.3284505032  8.85E-02
   309 Broy./Diag. 0.80E-01    1.5     0.10093870     -5416.1413572912  2.19E+00
   310 Broy./Diag. 0.80E-01    1.5     0.10554214     -5409.2381970962  6.90E+00
   311 Broy./Diag. 0.80E-01    1.5     0.01971910     -5408.2824953474  9.56E-01
   312 Broy./Diag. 0.80E-01    1.5     0.06278500     -5407.1226808334  1.16E+00
   313 Broy./Diag. 0.80E-01    1.5     0.10988942     -5404.5044652865  2.62E+00
   314 Broy./Diag. 0.80E-01    1.5     0.07456289     -5410.5676928792 -6.06E+00
   315 Broy./Diag. 0.80E-01    1.5     0.08569343     -5413.3436735668 -2.78E+00
   316 Broy./Diag. 0.80E-01    1.5     0.08254681     -5407.7766258027  5.57E+00
   317 Broy./Diag. 0.80E-01    1.5     0.04426287     -5413.7065973002 -5.93E+00
   318 Broy./Diag. 0.80E-01    1.5     0.09551130     -5414.7973931864 -1.09E+00
   319 Broy./Diag. 0.80E-01    1.5     0.12758011     -5412.3927783471  2.40E+00
   320 Broy./Diag. 0.80E-01    1.5     0.07373734     -5417.8382587015 -5.45E+00
   321 Broy./Diag. 0.80E-01    1.5     0.06151072     -5417.2176615510  6.21E-01
   322 Broy./Diag. 0.80E-01    1.5     0.06645078     -5416.3808312785  8.37E-01
   323 Broy./Diag. 0.80E-01    1.5     0.03477507     -5415.9582153073  4.23E-01
   324 Broy./Diag. 0.80E-01    1.5     0.05580314     -5415.5821610303  3.76E-01
   325 Broy./Diag. 0.80E-01    1.5     0.05650166     -5415.7770422082 -1.95E-01
   326 Broy./Diag. 0.80E-01    1.5     0.09978034     -5415.2283478440  5.49E-01
   327 Broy./Diag. 0.80E-01    1.5     0.24352566     -5417.3214397994 -2.09E+00
   328 Broy./Diag. 0.80E-01    1.5     0.13182824     -5412.0962373211  5.23E+00
   329 Broy./Diag. 0.80E-01    1.5     0.06112709     -5414.4018929737 -2.31E+00
   330 Broy./Diag. 0.80E-01    1.5     0.06912673     -5413.4468100888  9.55E-01
   331 Broy./Diag. 0.80E-01    1.5     0.05679881     -5413.7135337413 -2.67E-01
   332 Broy./Diag. 0.80E-01    1.5     0.10279463     -5416.2488982010 -2.54E+00
   333 Broy./Diag. 0.80E-01    1.5     0.18278850     -5416.3892435276 -1.40E-01
   334 Broy./Diag. 0.80E-01    1.5     0.17196860     -5409.2311192642  7.16E+00
   335 Broy./Diag. 0.80E-01    1.5     0.13313638     -5416.0376369347 -6.81E+00
   336 Broy./Diag. 0.80E-01    1.5     0.07922472     -5413.2739655814  2.76E+00
   337 Broy./Diag. 0.80E-01    1.5     0.06887639     -5414.2055639250 -9.32E-01
   338 Broy./Diag. 0.80E-01    1.5     0.20256490     -5414.6075225564 -4.02E-01
   339 Broy./Diag. 0.80E-01    1.5     0.08759899     -5416.9769265022 -2.37E+00
   340 Broy./Diag. 0.80E-01    1.5     0.05026076     -5416.6371956272  3.40E-01
   341 Broy./Diag. 0.80E-01    1.5     0.10364339     -5417.8927003600 -1.26E+00
   342 Broy./Diag. 0.80E-01    1.5     0.10565097     -5415.3749892464  2.52E+00
   343 Broy./Diag. 0.80E-01    1.5     0.09361482     -5415.0346913498  3.40E-01
   344 Broy./Diag. 0.80E-01    1.5     0.11293663     -5414.3480783107  6.87E-01
   345 Broy./Diag. 0.80E-01    1.5     0.11300770     -5411.9821976512  2.37E+00
   346 Broy./Diag. 0.80E-01    1.5     0.15256688     -5414.5061371627 -2.52E+00
   347 Broy./Diag. 0.80E-01    1.5     0.07833219     -5412.5625935840  1.94E+00
   348 Broy./Diag. 0.80E-01    1.5     0.32195944     -5411.4684249231  1.09E+00
   349 Broy./Diag. 0.80E-01    1.5     0.15269483     -5414.7192505612 -3.25E+00
   350 Broy./Diag. 0.80E-01    1.5     0.18464312     -5414.3688775805  3.50E-01
   351 Broy./Diag. 0.80E-01    1.5     0.33012559     -5417.7968295587 -3.43E+00
   352 Broy./Diag. 0.80E-01    1.5     0.02449967     -5415.5940026867  2.20E+00
   353 Broy./Diag. 0.80E-01    1.5     0.06844029     -5415.3738730457  2.20E-01
   354 Broy./Diag. 0.80E-01    1.5     0.17576539     -5416.6323836274 -1.26E+00
   355 Broy./Diag. 0.80E-01    1.5     0.27011964     -5415.9788156940  6.54E-01
   356 Broy./Diag. 0.80E-01    1.5     0.14572586     -5413.9723469975  2.01E+00
   357 Broy./Diag. 0.80E-01    1.5     0.12843809     -5413.8121627293  1.60E-01
   358 Broy./Diag. 0.80E-01    1.5     0.05064597     -5415.6230929889 -1.81E+00
   359 Broy./Diag. 0.80E-01    1.5     0.12924968     -5415.4013235559  2.22E-01
   360 Broy./Diag. 0.80E-01    1.5     0.22135957     -5416.5178555230 -1.12E+00
   361 Broy./Diag. 0.80E-01    1.5     0.05367753     -5415.4474660278  1.07E+00
   362 Broy./Diag. 0.80E-01    1.5     0.10442314     -5416.7104027882 -1.26E+00
   363 Broy./Diag. 0.80E-01    1.5     0.26313655     -5418.6373430621 -1.93E+00
   364 Broy./Diag. 0.80E-01    1.5     0.05774118     -5414.6830821486  3.95E+00
   365 Broy./Diag. 0.80E-01    1.5     0.06419695     -5414.1228727859  5.60E-01
   366 Broy./Diag. 0.80E-01    1.5     0.12802237     -5414.7693215142 -6.46E-01
   367 Broy./Diag. 0.80E-01    1.5     0.10774467     -5415.9986026617 -1.23E+00
   368 Broy./Diag. 0.80E-01    1.5     0.09857882     -5416.5801555071 -5.82E-01
   369 Broy./Diag. 0.80E-01    1.5     0.29886461     -5417.3452880943 -7.65E-01
   370 Broy./Diag. 0.80E-01    1.5     0.04549318     -5413.0996496345  4.25E+00
   371 Broy./Diag. 0.80E-01    1.5     0.20384914     -5412.3827628381  7.17E-01
