 DBCSR| CPU Multiplication driver                                           XSMM (U)
 DBCSR| Multrec recursion limit                                              512 (U)
 DBCSR| Multiplication stack size                                           1000 (D)
 DBCSR| Maximum elements for images                                    UNLIMITED (U)
 DBCSR| Multiplicative factor virtual images                                   1 (U)
 DBCSR| Use multiplication densification                                       T (D)
 DBCSR| Multiplication size stacks                                             3 (U)
 DBCSR| Use memory pool for CPU allocation                                     F (U)
 DBCSR| Number of 3D layers                                               SINGLE (U)
 DBCSR| Use MPI memory allocation                                              F (U)
 DBCSR| Use RMA algorithm                                                      F (U)
 DBCSR| Use Communication thread                                               T (U)
 DBCSR| Communication thread load                                             87 (D)
 DBCSR| MPI: My process id                                                     0
 DBCSR| MPI: Number of processes                                             128
 DBCSR| OMP: Current number of threads                                         1
 DBCSR| OMP: Max number of threads                                             1
 DBCSR| Split modifier for TAS multiplication algorithm                  1.0E+00 (U)


  **** **** ******  **  PROGRAM STARTED AT               2023-02-15 16:38:12.758
 ***** ** ***  *** **   PROGRAM STARTED ON                             nid001649
 **    ****   ******    PROGRAM STARTED BY                                cahart
 ***** **    ** ** **   PROGRAM PROCESS ID                                123609
  **** **  *******  **  PROGRAM STARTED IN /mnt/lustre/a2fs-work2/work/e05/e05/c
                                           ahart/postdoc/masters/ni/archer2/slab
                                           /optimise/magnetisation/scf_1e-4_temp
                                           -2000_mos-1000_alpha-0.08_beta-1.5_pe
                                           riodic-xyz/search/0.26_0.8

 CP2K| version string:                 CP2K version 2023.1 (Development Version)
 CP2K| source code revision number:                                  git:964cd58
 CP2K| cp2kflags: omp libint fftw3 libxc elpa parallel scalapack xsmm plumed2 mk
 CP2K|            l
 CP2K| is freely available from                            https://www.cp2k.org/
 CP2K| Program compiled at                          Mon 13 Feb 17:05:14 GMT 2023
 CP2K| Program compiled on                                                  ln01
 CP2K| Program compiled for                                              ARCHER2
 CP2K| Data directory path    /work/e05/e05/cahart/cp2k/cp2k-2023.1/cp2k-2023.1-
 CP2K| Input file name                                                  cp2k.inp

 GLOBAL| Force Environment number                                              1
 GLOBAL| Basis set file name                                        BASIS_MOLOPT
 GLOBAL| Potential file name                                      GTH_POTENTIALS
 GLOBAL| MM Potential file name                                     MM_POTENTIAL
 GLOBAL| Coordinate file name                                      __STD_INPUT__
 GLOBAL| Method name                                                        CP2K
 GLOBAL| Project name                                                    Ni_bulk
 GLOBAL| Run type                                                         ENERGY
 GLOBAL| FFT library                                                       FFTW3
 GLOBAL| Diagonalization library                                            ELPA
 GLOBAL| DGEMM library                                                      BLAS
 GLOBAL| Minimum number of eigenvectors for ELPA usage                        16
 GLOBAL| Orthonormality check for eigenvectors                          DISABLED
 GLOBAL| Matrix multiplication library                                 ScaLAPACK
 GLOBAL| All-to-all communication in single precision                          F
 GLOBAL| FFTs using library dependent lengths                                  F
 GLOBAL| Grid backend                                                       AUTO
 GLOBAL| Global print level                                               MEDIUM
 GLOBAL| MPI I/O enabled                                                       T
 GLOBAL| Total number of message passing processes                           128
 GLOBAL| Number of threads for this process                                    1
 GLOBAL| This output is from process                                           0
 GLOBAL| Stack size for threads created by OpenMP (OMP_STACKSIZE)        default
 GLOBAL| CPU model name                          AMD EPYC 7742 64-Core Processor
 GLOBAL| CPUID                                                              1002

 MEMORY| system memory details [Kb]
 MEMORY|                        rank 0           min           max       average
 MEMORY| MemTotal            263528088     263528088     263528088     263528088
 MEMORY| MemFree             239121360     239121360     239121580     239121399
 MEMORY| Buffers                 38500         38500         38500         38500
 MEMORY| Cached                 696540        696540        696688        696567
 MEMORY| Slab                  1512144       1512144       1512172       1512149
 MEMORY| SReclaimable           104672        104672        104672        104672
 MEMORY| MemLikelyFree       239961072     239961072     239961440     239961139


 *** Fundamental physical constants (SI units) ***

 *** Literature: B. J. Mohr and B. N. Taylor,
 ***             CODATA recommended values of the fundamental physical
 ***             constants: 2006, Web Version 5.1
 ***             http://physics.nist.gov/constants

 Speed of light in vacuum [m/s]                             2.99792458000000E+08
 Magnetic constant or permeability of vacuum [N/A**2]       1.25663706143592E-06
 Electric constant or permittivity of vacuum [F/m]          8.85418781762039E-12
 Planck constant (h) [J*s]                                  6.62606896000000E-34
 Planck constant (h-bar) [J*s]                              1.05457162825177E-34
 Elementary charge [C]                                      1.60217648700000E-19
 Electron mass [kg]                                         9.10938215000000E-31
 Electron g factor [ ]                                     -2.00231930436220E+00
 Proton mass [kg]                                           1.67262163700000E-27
 Fine-structure constant                                    7.29735253760000E-03
 Rydberg constant [1/m]                                     1.09737315685270E+07
 Avogadro constant [1/mol]                                  6.02214179000000E+23
 Boltzmann constant [J/K]                                   1.38065040000000E-23
 Atomic mass unit [kg]                                      1.66053878200000E-27
 Bohr radius [m]                                            5.29177208590000E-11

 *** Conversion factors ***

 [u] -> [a.u.]                                              1.82288848426455E+03
 [Angstrom] -> [Bohr] = [a.u.]                              1.88972613288564E+00
 [a.u.] = [Bohr] -> [Angstrom]                              5.29177208590000E-01
 [a.u.] -> [s]                                              2.41888432650478E-17
 [a.u.] -> [fs]                                             2.41888432650478E-02
 [a.u.] -> [J]                                              4.35974393937059E-18
 [a.u.] -> [N]                                              8.23872205491840E-08
 [a.u.] -> [K]                                              3.15774647902944E+05
 [a.u.] -> [kJ/mol]                                         2.62549961709828E+03
 [a.u.] -> [kcal/mol]                                       6.27509468713739E+02
 [a.u.] -> [Pa]                                             2.94210107994716E+13
 [a.u.] -> [bar]                                            2.94210107994716E+08
 [a.u.] -> [atm]                                            2.90362800883016E+08
 [a.u.] -> [eV]                                             2.72113838565563E+01
 [a.u.] -> [Hz]                                             6.57968392072181E+15
 [a.u.] -> [1/cm] (wave numbers)                            2.19474631370540E+05
 [a.u./Bohr**2] -> [1/cm]                                   5.14048714338585E+03
 

 CELL_TOP| Volume [angstrom^3]:                                       983.249569
 CELL_TOP| Vector a [angstrom     7.012     0.000     0.000   |a| =     7.011596
 CELL_TOP| Vector b [angstrom     0.000     7.012     0.000   |b| =     7.011596
 CELL_TOP| Vector c [angstrom     0.000     0.000    20.000   |c| =    20.000000
 CELL_TOP| Angle (b,c), alpha [degree]:                                90.000000
 CELL_TOP| Angle (a,c), beta  [degree]:                                90.000000
 CELL_TOP| Angle (a,b), gamma [degree]:                                90.000000
 CELL_TOP| Numerically orthorhombic:                                         YES
 CELL_TOP| Periodicity                                                       XYZ

 GENERATE|  Preliminary Number of Bonds generated:                             0
 GENERATE|  Achieved consistency in connectivity generation.

 CELL| Volume [angstrom^3]:                                           983.249569
 CELL| Vector a [angstrom]:       7.012     0.000     0.000   |a| =     7.011596
 CELL| Vector b [angstrom]:       0.000     7.012     0.000   |b| =     7.011596
 CELL| Vector c [angstrom]:       0.000     0.000    20.000   |c| =    20.000000
 CELL| Angle (b,c), alpha [degree]:                                    90.000000
 CELL| Angle (a,c), beta  [degree]:                                    90.000000
 CELL| Angle (a,b), gamma [degree]:                                    90.000000
 CELL| Numerically orthorhombic:                                             YES
 CELL| Periodicity                                                           XYZ

 CELL_REF| Volume [angstrom^3]:                                       983.249569
 CELL_REF| Vector a [angstrom     7.012     0.000     0.000   |a| =     7.011596
 CELL_REF| Vector b [angstrom     0.000     7.012     0.000   |b| =     7.011596
 CELL_REF| Vector c [angstrom     0.000     0.000    20.000   |c| =    20.000000
 CELL_REF| Angle (b,c), alpha [degree]:                                90.000000
 CELL_REF| Angle (a,c), beta  [degree]:                                90.000000
 CELL_REF| Angle (a,b), gamma [degree]:                                90.000000
 CELL_REF| Numerically orthorhombic:                                         YES
 CELL_REF| Periodicity                                                       XYZ

 *** WARNING in cryssym.F:165 :: Symmetry library SPGLIB not available ***


 *******************************************************************************
                                    Kpoints
 *******************************************************************************
 BRILLOUIN| K-point scheme                                        Monkhorst-Pack
 BRILLOUIN| K-Point grid                                             4    4    1
 BRILLOUIN| Accuracy in Symmetry determination                      0.100000E-05
 BRILLOUIN| K-Point point group symmetrization                               OFF
 BRILLOUIN| Wavefunction type                                            COMPLEX
 BRILLOUIN| List of Kpoints [2 Pi/Bohr]                                        8
 BRILLOUIN| Number           Weight            X              Y              Z
 BRILLOUIN|     1           0.12500       -0.37500       -0.37500        0.00000
 BRILLOUIN|     2           0.12500       -0.37500       -0.12500        0.00000
 BRILLOUIN|     3           0.12500       -0.37500        0.12500        0.00000
 BRILLOUIN|     4           0.12500       -0.37500        0.37500        0.00000
 BRILLOUIN|     5           0.12500       -0.12500       -0.37500        0.00000
 BRILLOUIN|     6           0.12500       -0.12500       -0.12500        0.00000
 BRILLOUIN|     7           0.12500       -0.12500        0.12500        0.00000
 BRILLOUIN|     8           0.12500       -0.12500        0.37500        0.00000
 *******************************************************************************

 *******************************************************************************
 *******************************************************************************
 **                                                                           **
 **     #####                         ##              ##                      **
 **    ##   ##            ##          ##              ##                      **
 **   ##     ##                       ##            ######                    **
 **   ##     ##  ##   ##  ##   #####  ##  ##   ####   ##    #####    #####    **
 **   ##     ##  ##   ##  ##  ##      ## ##   ##      ##   ##   ##  ##   ##   **
 **   ##  ## ##  ##   ##  ##  ##      ####     ###    ##   ######   ######    **
 **    ##  ###   ##   ##  ##  ##      ## ##      ##   ##   ##       ##        **
 **     #######   #####   ##   #####  ##  ##  ####    ##    #####   ##        **
 **           ##                                                    ##        **
 **                                                                           **
 **                                                ... make the atoms dance   **
 **                                                                           **
 **            Copyright (C) by CP2K developers group (2000-2023)             **
 **                      J. Chem. Phys. 152, 194103 (2020)                    **
 **                                                                           **
 *******************************************************************************

 *** WARNING in qs_environment.F:1456 :: Number of electrons will be ***
 *** overwritten by NELEC_ALPHA and NELEC_BETA, multiplicity will be ***
 *** ignored.                                                        ***

 Number of electrons should be                                               576
 Sum of NELEC_ALPHA and NELEC_BETA is                                    576.000

 *** WARNING in qs_environment.F:1488 :: NELEC_ALPHA is not an integer, ***
 *** many features will not be supported.                               ***


 *** WARNING in qs_environment.F:1500 :: NELEC_BETA is not an integer, ***
 *** many features will not be supported.                              ***


 *** WARNING in qs_environment.F:1532 :: More ADDED_MOs requested for beta ***
 *** spin than available.                                                  ***


 *** WARNING in qs_environment.F:1548 :: More added MOs requested than     ***
 *** available. The full set of unoccupied MOs will be used. Use           ***
 *** 'ADDED_MOS -1' to always use all available MOs and to get rid of this ***
 *** warning.                                                              ***


 DFT| Spin unrestricted (spin-polarized) Kohn-Sham calculation               UKS
 DFT| Multiplicity                                                             1
 DFT| Number of spin states                                                    2
 DFT| Charge                                                                   0
 DFT| Self-interaction correction (SIC)                                       NO
 DFT| Cutoffs: density                                              1.000000E-10
 DFT|          gradient                                             1.000000E-10
 DFT|          tau                                                  1.000000E-10
 DFT|          cutoff_smoothing_range                               0.000000E+00
 DFT| XC density smoothing                                                  NONE
 DFT| XC derivatives                                                          PW

 FUNCTIONAL| PBE:
 FUNCTIONAL| J.P.Perdew, K.Burke, M.Ernzerhof, Phys. Rev. Letter, vol. 77, n 18,
 FUNCTIONAL|  pp. 3865-3868, (1996){spin polarized}                             

 vdW POTENTIAL|                                                   Pair Potential
 vdW POTENTIAL|          DFT-D3 (Version 3.1)
 vdW POTENTIAL|          Potential Form: S. Grimme et al, JCP 132: 154104 (2010)
 vdW POTENTIAL|          Zero Damping
 vdW POTENTIAL|          Cutoff Radius [Bohr]:                             20.00
 vdW POTENTIAL|          s6 Scaling Factor:                               1.0000
 vdW POTENTIAL|          sr6 Scaling Factor:                              1.2170
 vdW POTENTIAL|          s8 Scaling Factor:                               0.7220
 vdW POTENTIAL|          Cutoff for CN calculation:                   0.1000E-05

 QS| Method:                                                                 GPW
 QS| Density plane wave grid type                        NON-SPHERICAL FULLSPACE
 QS| Number of grid levels:                                                    5
 QS| Density cutoff [a.u.]:                                                300.0
 QS| Multi grid cutoff [a.u.]: 1) grid level                               300.0
 QS|                           2) grid level                               100.0
 QS|                           3) grid level                                33.3
 QS|                           4) grid level                                11.1
 QS|                           5) grid level                                 3.7
 QS| Grid level progression factor:                                          3.0
 QS| Relative density cutoff [a.u.]:                                        30.0
 QS| Interaction thresholds: eps_pgf_orb:                                1.0E-06
 QS|                         eps_filter_matrix:                          0.0E+00
 QS|                         eps_core_charge:                            1.0E-14
 QS|                         eps_rho_gspace:                             1.0E-12
 QS|                         eps_rho_rspace:                             1.0E-12
 QS|                         eps_gvg_rspace:                             1.0E-06
 QS|                         eps_ppl:                                    1.0E-02
 QS|                         eps_ppnl:                                   1.0E-08


 ATOMIC KIND INFORMATION

  1. Atomic kind: Ni_i                                  Number of atoms:      16

     Orbital Basis Set                                        DZVP-MOLOPT-SR-GTH

       Number of orbital shell sets:                                           1
       Number of orbital shells:                                               8
       Number of primitive Cartesian functions:                                6
       Number of Cartesian basis functions:                                   31
       Number of spherical basis functions:                                   26
       Norm type:                                                              2

       Normalised Cartesian orbitals:

                        Set   Shell   Orbital            Exponent    Coefficient

                          1       1    2s               10.077428      -0.684558
                                                         5.847736      -0.844524
                                                         2.494033       1.088856
                                                         0.988355       0.395503
                                                         0.344978       0.010224
                                                         0.099466      -0.003250

                          1       2    3s               10.077428       0.096747
                                                         5.847736       0.162504
                                                         2.494033      -0.297192
                                                         0.988355      -0.319752
                                                         0.344978       0.088318
                                                         0.099466       0.118587

                          1       3    4s               10.077428       0.036437
                                                         5.847736      -0.381480
                                                         2.494033       0.003759
                                                         0.988355      -1.048256
                                                         0.344978       0.855825
                                                         0.099466      -0.176350

                          1       4    3px              10.077428      -3.133913
                                                         5.847736       3.027656
                                                         2.494033       2.353227
                                                         0.988355       0.554184
                                                         0.344978       0.019462
                                                         0.099466      -0.000291
                          1       4    3py              10.077428      -3.133913
                                                         5.847736       3.027656
                                                         2.494033       2.353227
                                                         0.988355       0.554184
                                                         0.344978       0.019462
                                                         0.099466      -0.000291
                          1       4    3pz              10.077428      -3.133913
                                                         5.847736       3.027656
                                                         2.494033       2.353227
                                                         0.988355       0.554184
                                                         0.344978       0.019462
                                                         0.099466      -0.000291

                          1       5    4px              10.077428      -0.112729
                                                         5.847736      -0.114008
                                                         2.494033      -0.347303
                                                         0.988355      -0.110323
                                                         0.344978       0.154096
                                                         0.099466       0.058386
                          1       5    4py              10.077428      -0.112729
                                                         5.847736      -0.114008
                                                         2.494033      -0.347303
                                                         0.988355      -0.110323
                                                         0.344978       0.154096
                                                         0.099466       0.058386
                          1       5    4pz              10.077428      -0.112729
                                                         5.847736      -0.114008
                                                         2.494033      -0.347303
                                                         0.988355      -0.110323
                                                         0.344978       0.154096
                                                         0.099466       0.058386

                          1       6    4dx2             10.077428       8.232726
                                                         5.847736       9.105758
                                                         2.494033       2.849835
                                                         0.988355       0.554319
                                                         0.344978       0.067245
                                                         0.099466       0.001940
                          1       6    4dxy             10.077428      14.259500
                                                         5.847736      15.771636
                                                         2.494033       4.936060
                                                         0.988355       0.960109
                                                         0.344978       0.116472
                                                         0.099466       0.003360
                          1       6    4dxz             10.077428      14.259500
                                                         5.847736      15.771636
                                                         2.494033       4.936060
                                                         0.988355       0.960109
                                                         0.344978       0.116472
                                                         0.099466       0.003360
                          1       6    4dy2             10.077428       8.232726
                                                         5.847736       9.105758
                                                         2.494033       2.849835
                                                         0.988355       0.554319
                                                         0.344978       0.067245
                                                         0.099466       0.001940
                          1       6    4dyz             10.077428      14.259500
                                                         5.847736      15.771636
                                                         2.494033       4.936060
                                                         0.988355       0.960109
                                                         0.344978       0.116472
                                                         0.099466       0.003360
                          1       6    4dz2             10.077428       8.232726
                                                         5.847736       9.105758
                                                         2.494033       2.849835
                                                         0.988355       0.554319
                                                         0.344978       0.067245
                                                         0.099466       0.001940

                          1       7    5dx2             10.077428      -2.715373
                                                         5.847736      -4.020640
                                                         2.494033      -1.397569
                                                         0.988355      -0.076143
                                                         0.344978       0.033435
                                                         0.099466       0.026032
                          1       7    5dxy             10.077428      -4.703164
                                                         5.847736      -6.963952
                                                         2.494033      -2.420661
                                                         0.988355      -0.131883
                                                         0.344978       0.057911
                                                         0.099466       0.045088
                          1       7    5dxz             10.077428      -4.703164
                                                         5.847736      -6.963952
                                                         2.494033      -2.420661
                                                         0.988355      -0.131883
                                                         0.344978       0.057911
                                                         0.099466       0.045088
                          1       7    5dy2             10.077428      -2.715373
                                                         5.847736      -4.020640
                                                         2.494033      -1.397569
                                                         0.988355      -0.076143
                                                         0.344978       0.033435
                                                         0.099466       0.026032
                          1       7    5dyz             10.077428      -4.703164
                                                         5.847736      -6.963952
                                                         2.494033      -2.420661
                                                         0.988355      -0.131883
                                                         0.344978       0.057911
                                                         0.099466       0.045088
                          1       7    5dz2             10.077428      -2.715373
                                                         5.847736      -4.020640
                                                         2.494033      -1.397569
                                                         0.988355      -0.076143
                                                         0.344978       0.033435
                                                         0.099466       0.026032

                          1       8    5fx3             10.077428      -0.467694
                                                         5.847736       0.618100
                                                         2.494033       0.066069
                                                         0.988355       0.262898
                                                         0.344978       0.004720
                                                         0.099466       0.007748
                          1       8    5fx2y            10.077428      -1.045795
                                                         5.847736       1.382114
                                                         2.494033       0.147734
                                                         0.988355       0.587859
                                                         0.344978       0.010555
                                                         0.099466       0.017325
                          1       8    5fx2z            10.077428      -1.045795
                                                         5.847736       1.382114
                                                         2.494033       0.147734
                                                         0.988355       0.587859
                                                         0.344978       0.010555
                                                         0.099466       0.017325
                          1       8    5fxy2            10.077428      -1.045795
                                                         5.847736       1.382114
                                                         2.494033       0.147734
                                                         0.988355       0.587859
                                                         0.344978       0.010555
                                                         0.099466       0.017325
                          1       8    5fxyz            10.077428      -1.811371
                                                         5.847736       2.393892
                                                         2.494033       0.255883
                                                         0.988355       1.018201
                                                         0.344978       0.018282
                                                         0.099466       0.030008
                          1       8    5fxz2            10.077428      -1.045795
                                                         5.847736       1.382114
                                                         2.494033       0.147734
                                                         0.988355       0.587859
                                                         0.344978       0.010555
                                                         0.099466       0.017325
                          1       8    5fy3             10.077428      -0.467694
                                                         5.847736       0.618100
                                                         2.494033       0.066069
                                                         0.988355       0.262898
                                                         0.344978       0.004720
                                                         0.099466       0.007748
                          1       8    5fy2z            10.077428      -1.045795
                                                         5.847736       1.382114
                                                         2.494033       0.147734
                                                         0.988355       0.587859
                                                         0.344978       0.010555
                                                         0.099466       0.017325
                          1       8    5fyz2            10.077428      -1.045795
                                                         5.847736       1.382114
                                                         2.494033       0.147734
                                                         0.988355       0.587859
                                                         0.344978       0.010555
                                                         0.099466       0.017325
                          1       8    5fz3             10.077428      -0.467694
                                                         5.847736       0.618100
                                                         2.494033       0.066069
                                                         0.988355       0.262898
                                                         0.344978       0.004720
                                                         0.099466       0.007748

       Atomic covalent radius [Angstrom]:                                  1.150

       Atomic van der Waals radius [Angstrom]:                             1.630

     GTH Potential information for                                   GTH-PBE-q18

       Description:                       Goedecker-Teter-Hutter pseudopotential
                                           Goedecker et al., PRB 54, 1703 (1996)
                                          Hartwigsen et al., PRB 58, 3641 (1998)
                                                      Krack, TCA 114, 145 (2005)

       Gaussian exponent of the core charge distribution:               4.081633
       Electronic configuration (s p d ...):                           4   6   8

       Parameters of the local part of the GTH pseudopotential:

                          rloc        C1          C2          C3          C4
                        0.350000    2.102166    0.648484

       Parameters of the non-local part of the GTH pseudopotential:

                   l      r(l)      h(i,j,l)

                   0    0.261295    0.622658    9.970227
                                    9.970227  -12.871507
                   1    0.224253  -11.142708   12.429566
                                   12.429566  -14.706861
                   2    0.215348  -12.628146

  2. Atomic kind: Ni_b                                  Number of atoms:      16

     Orbital Basis Set                                        DZVP-MOLOPT-SR-GTH

       Number of orbital shell sets:                                           1
       Number of orbital shells:                                               8
       Number of primitive Cartesian functions:                                6
       Number of Cartesian basis functions:                                   31
       Number of spherical basis functions:                                   26
       Norm type:                                                              2

       Normalised Cartesian orbitals:

                        Set   Shell   Orbital            Exponent    Coefficient

                          1       1    2s               10.077428      -0.684558
                                                         5.847736      -0.844524
                                                         2.494033       1.088856
                                                         0.988355       0.395503
                                                         0.344978       0.010224
                                                         0.099466      -0.003250

                          1       2    3s               10.077428       0.096747
                                                         5.847736       0.162504
                                                         2.494033      -0.297192
                                                         0.988355      -0.319752
                                                         0.344978       0.088318
                                                         0.099466       0.118587

                          1       3    4s               10.077428       0.036437
                                                         5.847736      -0.381480
                                                         2.494033       0.003759
                                                         0.988355      -1.048256
                                                         0.344978       0.855825
                                                         0.099466      -0.176350

                          1       4    3px              10.077428      -3.133913
                                                         5.847736       3.027656
                                                         2.494033       2.353227
                                                         0.988355       0.554184
                                                         0.344978       0.019462
                                                         0.099466      -0.000291
                          1       4    3py              10.077428      -3.133913
                                                         5.847736       3.027656
                                                         2.494033       2.353227
                                                         0.988355       0.554184
                                                         0.344978       0.019462
                                                         0.099466      -0.000291
                          1       4    3pz              10.077428      -3.133913
                                                         5.847736       3.027656
                                                         2.494033       2.353227
                                                         0.988355       0.554184
                                                         0.344978       0.019462
                                                         0.099466      -0.000291

                          1       5    4px              10.077428      -0.112729
                                                         5.847736      -0.114008
                                                         2.494033      -0.347303
                                                         0.988355      -0.110323
                                                         0.344978       0.154096
                                                         0.099466       0.058386
                          1       5    4py              10.077428      -0.112729
                                                         5.847736      -0.114008
                                                         2.494033      -0.347303
                                                         0.988355      -0.110323
                                                         0.344978       0.154096
                                                         0.099466       0.058386
                          1       5    4pz              10.077428      -0.112729
                                                         5.847736      -0.114008
                                                         2.494033      -0.347303
                                                         0.988355      -0.110323
                                                         0.344978       0.154096
                                                         0.099466       0.058386

                          1       6    4dx2             10.077428       8.232726
                                                         5.847736       9.105758
                                                         2.494033       2.849835
                                                         0.988355       0.554319
                                                         0.344978       0.067245
                                                         0.099466       0.001940
                          1       6    4dxy             10.077428      14.259500
                                                         5.847736      15.771636
                                                         2.494033       4.936060
                                                         0.988355       0.960109
                                                         0.344978       0.116472
                                                         0.099466       0.003360
                          1       6    4dxz             10.077428      14.259500
                                                         5.847736      15.771636
                                                         2.494033       4.936060
                                                         0.988355       0.960109
                                                         0.344978       0.116472
                                                         0.099466       0.003360
                          1       6    4dy2             10.077428       8.232726
                                                         5.847736       9.105758
                                                         2.494033       2.849835
                                                         0.988355       0.554319
                                                         0.344978       0.067245
                                                         0.099466       0.001940
                          1       6    4dyz             10.077428      14.259500
                                                         5.847736      15.771636
                                                         2.494033       4.936060
                                                         0.988355       0.960109
                                                         0.344978       0.116472
                                                         0.099466       0.003360
                          1       6    4dz2             10.077428       8.232726
                                                         5.847736       9.105758
                                                         2.494033       2.849835
                                                         0.988355       0.554319
                                                         0.344978       0.067245
                                                         0.099466       0.001940

                          1       7    5dx2             10.077428      -2.715373
                                                         5.847736      -4.020640
                                                         2.494033      -1.397569
                                                         0.988355      -0.076143
                                                         0.344978       0.033435
                                                         0.099466       0.026032
                          1       7    5dxy             10.077428      -4.703164
                                                         5.847736      -6.963952
                                                         2.494033      -2.420661
                                                         0.988355      -0.131883
                                                         0.344978       0.057911
                                                         0.099466       0.045088
                          1       7    5dxz             10.077428      -4.703164
                                                         5.847736      -6.963952
                                                         2.494033      -2.420661
                                                         0.988355      -0.131883
                                                         0.344978       0.057911
                                                         0.099466       0.045088
                          1       7    5dy2             10.077428      -2.715373
                                                         5.847736      -4.020640
                                                         2.494033      -1.397569
                                                         0.988355      -0.076143
                                                         0.344978       0.033435
                                                         0.099466       0.026032
                          1       7    5dyz             10.077428      -4.703164
                                                         5.847736      -6.963952
                                                         2.494033      -2.420661
                                                         0.988355      -0.131883
                                                         0.344978       0.057911
                                                         0.099466       0.045088
                          1       7    5dz2             10.077428      -2.715373
                                                         5.847736      -4.020640
                                                         2.494033      -1.397569
                                                         0.988355      -0.076143
                                                         0.344978       0.033435
                                                         0.099466       0.026032

                          1       8    5fx3             10.077428      -0.467694
                                                         5.847736       0.618100
                                                         2.494033       0.066069
                                                         0.988355       0.262898
                                                         0.344978       0.004720
                                                         0.099466       0.007748
                          1       8    5fx2y            10.077428      -1.045795
                                                         5.847736       1.382114
                                                         2.494033       0.147734
                                                         0.988355       0.587859
                                                         0.344978       0.010555
                                                         0.099466       0.017325
                          1       8    5fx2z            10.077428      -1.045795
                                                         5.847736       1.382114
                                                         2.494033       0.147734
                                                         0.988355       0.587859
                                                         0.344978       0.010555
                                                         0.099466       0.017325
                          1       8    5fxy2            10.077428      -1.045795
                                                         5.847736       1.382114
                                                         2.494033       0.147734
                                                         0.988355       0.587859
                                                         0.344978       0.010555
                                                         0.099466       0.017325
                          1       8    5fxyz            10.077428      -1.811371
                                                         5.847736       2.393892
                                                         2.494033       0.255883
                                                         0.988355       1.018201
                                                         0.344978       0.018282
                                                         0.099466       0.030008
                          1       8    5fxz2            10.077428      -1.045795
                                                         5.847736       1.382114
                                                         2.494033       0.147734
                                                         0.988355       0.587859
                                                         0.344978       0.010555
                                                         0.099466       0.017325
                          1       8    5fy3             10.077428      -0.467694
                                                         5.847736       0.618100
                                                         2.494033       0.066069
                                                         0.988355       0.262898
                                                         0.344978       0.004720
                                                         0.099466       0.007748
                          1       8    5fy2z            10.077428      -1.045795
                                                         5.847736       1.382114
                                                         2.494033       0.147734
                                                         0.988355       0.587859
                                                         0.344978       0.010555
                                                         0.099466       0.017325
                          1       8    5fyz2            10.077428      -1.045795
                                                         5.847736       1.382114
                                                         2.494033       0.147734
                                                         0.988355       0.587859
                                                         0.344978       0.010555
                                                         0.099466       0.017325
                          1       8    5fz3             10.077428      -0.467694
                                                         5.847736       0.618100
                                                         2.494033       0.066069
                                                         0.988355       0.262898
                                                         0.344978       0.004720
                                                         0.099466       0.007748

       Atomic covalent radius [Angstrom]:                                  1.150

       Atomic van der Waals radius [Angstrom]:                             1.630

     GTH Potential information for                                   GTH-PBE-q18

       Description:                       Goedecker-Teter-Hutter pseudopotential
                                           Goedecker et al., PRB 54, 1703 (1996)
                                          Hartwigsen et al., PRB 58, 3641 (1998)
                                                      Krack, TCA 114, 145 (2005)

       Gaussian exponent of the core charge distribution:               4.081633
       Electronic configuration (s p d ...):                           4   6   8

       Parameters of the local part of the GTH pseudopotential:

                          rloc        C1          C2          C3          C4
                        0.350000    2.102166    0.648484

       Parameters of the non-local part of the GTH pseudopotential:

                   l      r(l)      h(i,j,l)

                   0    0.261295    0.622658    9.970227
                                    9.970227  -12.871507
                   1    0.224253  -11.142708   12.429566
                                   12.429566  -14.706861
                   2    0.215348  -12.628146


 MOLECULE KIND INFORMATION


 All atoms are their own molecule, skipping detailed information


 TOTAL NUMBERS AND MAXIMUM NUMBERS

  Total number of            - Atomic kinds:                                   2
                             - Atoms:                                         32
                             - Shell sets:                                    32
                             - Shells:                                       256
                             - Primitive Cartesian functions:                192
                             - Cartesian basis functions:                    992
                             - Spherical basis functions:                    832

  Maximum angular momentum of- Orbital basis functions:                        3
                             - Local part of the GTH pseudopotential:          2
                             - Non-local part of the GTH pseudopotential:      3


 MODULE QUICKSTEP: ATOMIC COORDINATES IN ANGSTROM

   Atom Kind Element         X             Y             Z       Z(eff)     Mass
      1    1 Ni   28      0.876298      0.876298      7.370500  18.0000  58.6934
      2    1 Ni   28      0.876298      4.382298      7.370500  18.0000  58.6934
      3    1 Ni   28      2.629298      2.629298      7.370500  18.0000  58.6934
      4    1 Ni   28      2.629298      6.135298      7.370500  18.0000  58.6934
      5    1 Ni   28      4.382298      0.876298      7.370500  18.0000  58.6934
      6    1 Ni   28      4.382298      4.382298      7.370500  18.0000  58.6934
      7    1 Ni   28      6.135298      2.629298      7.370500  18.0000  58.6934
      8    1 Ni   28      6.135298      6.135298      7.370500  18.0000  58.6934
      9    2 Ni   28      0.876298      2.629298      9.123500  18.0000  58.6934
     10    2 Ni   28      0.876298      6.135298      9.123500  18.0000  58.6934
     11    2 Ni   28      2.629298      0.876298      9.123500  18.0000  58.6934
     12    2 Ni   28      2.629298      4.382298      9.123500  18.0000  58.6934
     13    2 Ni   28      4.382298      2.629298      9.123500  18.0000  58.6934
     14    2 Ni   28      4.382298      6.135298      9.123500  18.0000  58.6934
     15    2 Ni   28      6.135298      0.876298      9.123500  18.0000  58.6934
     16    2 Ni   28      6.135298      4.382298      9.123500  18.0000  58.6934
     17    2 Ni   28      0.876298      0.876298     10.876500  18.0000  58.6934
     18    2 Ni   28      0.876298      4.382298     10.876500  18.0000  58.6934
     19    2 Ni   28      2.629298      2.629298     10.876500  18.0000  58.6934
     20    2 Ni   28      2.629298      6.135298     10.876500  18.0000  58.6934
     21    2 Ni   28      4.382298      0.876298     10.876500  18.0000  58.6934
     22    2 Ni   28      4.382298      4.382298     10.876500  18.0000  58.6934
     23    2 Ni   28      6.135298      2.629298     10.876500  18.0000  58.6934
     24    2 Ni   28      6.135298      6.135298     10.876500  18.0000  58.6934
     25    1 Ni   28      0.876298      2.629298     12.629500  18.0000  58.6934
     26    1 Ni   28      0.876298      6.135298     12.629500  18.0000  58.6934
     27    1 Ni   28      2.629298      0.876298     12.629500  18.0000  58.6934
     28    1 Ni   28      2.629298      4.382298     12.629500  18.0000  58.6934
     29    1 Ni   28      4.382298      2.629298     12.629500  18.0000  58.6934
     30    1 Ni   28      4.382298      6.135298     12.629500  18.0000  58.6934
     31    1 Ni   28      6.135298      0.876298     12.629500  18.0000  58.6934
     32    1 Ni   28      6.135298      4.382298     12.629500  18.0000  58.6934



 SCF PARAMETERS         Density guess:                                    ATOMIC
                        --------------------------------------------------------
                        max_scf:                                             500
                        max_scf_history:                                       0
                        max_diis:                                              4
                        --------------------------------------------------------
                        eps_scf:                                        1.00E-04
                        eps_scf_history:                                0.00E+00
                        eps_diis:                                       1.00E-01
                        eps_eigval:                                     1.00E-05
                        --------------------------------------------------------
                        level_shift [a.u.]:                             0.000000
                        added MOs                                       535  552
                        --------------------------------------------------------
                        Mixing method:                            BROYDEN_MIXING
                                                charge density mixing in g-space
                        --------------------------------------------------------
                        Smear method:                                FERMI_DIRAC
                        Electronic temperature [K]:                       2000.0
                        Electronic temperature [a.u.]:                  6.33E-03
                        Accuracy threshold:                             1.00E-10
                        --------------------------------------------------------
                        No outer SCF

 PW_GRID| Information for grid number                                          1
 PW_GRID| Grid distributed over                                   128 processors
 PW_GRID| Real space group dimensions                                     8   16
 PW_GRID| the grid is blocked:                                               YES
 PW_GRID| Cutoff [a.u.]                                                    300.0
 PW_GRID| spherical cutoff:                                                   NO
 PW_GRID|   Bounds   1            -54      53                Points:         108
 PW_GRID|   Bounds   2            -54      53                Points:         108
 PW_GRID|   Bounds   3           -150     149                Points:         300
 PW_GRID| Volume element (a.u.^3)  0.1896E-02     Volume (a.u.^3)      6635.2971
 PW_GRID| Grid span                                                    FULLSPACE
 PW_GRID|   Distribution                         Average         Max         Min
 PW_GRID|   G-Vectors                            27337.5       28728       25272
 PW_GRID|   G-Rays                                 253.1         266         234
 PW_GRID|   Real Space Points                    27337.5       28728       25272

 PW_GRID| Information for grid number                                          2
 PW_GRID| Number of the reference grid                                         1
 PW_GRID| Grid distributed over                                   128 processors
 PW_GRID| Real space group dimensions                                     8   16
 PW_GRID| the grid is blocked:                                                NO
 PW_GRID| Cutoff [a.u.]                                                    100.0
 PW_GRID| spherical cutoff:                                                   NO
 PW_GRID|   Bounds   1            -30      29                Points:          60
 PW_GRID|   Bounds   2            -30      29                Points:          60
 PW_GRID|   Bounds   3            -90      89                Points:         180
 PW_GRID| Volume element (a.u.^3)  0.1024E-01     Volume (a.u.^3)      6635.2971
 PW_GRID| Grid span                                                    FULLSPACE
 PW_GRID|   Distribution                         Average         Max         Min
 PW_GRID|   G-Vectors                             5062.5       15960           0
 PW_GRID|   G-Rays                                  84.4         266           0
 PW_GRID|   Real Space Points                     5062.5        5760        3780

 PW_GRID| Information for grid number                                          3
 PW_GRID| Number of the reference grid                                         1
 PW_GRID| Grid distributed over                                   128 processors
 PW_GRID| Real space group dimensions                                     8   16
 PW_GRID| the grid is blocked:                                                NO
 PW_GRID| Cutoff [a.u.]                                                     33.3
 PW_GRID| spherical cutoff:                                                   NO
 PW_GRID|   Bounds   1            -18      17                Points:          36
 PW_GRID|   Bounds   2            -18      17                Points:          36
 PW_GRID|   Bounds   3            -50      49                Points:         100
 PW_GRID| Volume element (a.u.^3)  0.5120E-01     Volume (a.u.^3)      6635.2971
 PW_GRID| Grid span                                                    FULLSPACE
 PW_GRID|   Distribution                         Average         Max         Min
 PW_GRID|   G-Vectors                             1012.5        9576           0
 PW_GRID|   G-Rays                                  28.1         266           0
 PW_GRID|   Real Space Points                     1012.5        1500         800

 PW_GRID| Information for grid number                                          4
 PW_GRID| Number of the reference grid                                         1
 PW_GRID| Grid distributed over                                   128 processors
 PW_GRID| Real space group dimensions                                     8   16
 PW_GRID| the grid is blocked:                                                NO
 PW_GRID| Cutoff [a.u.]                                                     11.1
 PW_GRID| spherical cutoff:                                                   NO
 PW_GRID|   Bounds   1            -10       9                Points:          20
 PW_GRID|   Bounds   2            -10       9                Points:          20
 PW_GRID|   Bounds   3            -30      29                Points:          60
 PW_GRID| Volume element (a.u.^3)  0.2765         Volume (a.u.^3)      6635.2971
 PW_GRID| Grid span                                                    FULLSPACE
 PW_GRID|   Distribution                         Average         Max         Min
 PW_GRID|   G-Vectors                              187.5        3800           0
 PW_GRID|   G-Rays                                   9.4         190           0
 PW_GRID|   Real Space Points                      187.5         360         120

 PW_GRID| Information for grid number                                          5
 PW_GRID| Number of the reference grid                                         1
 PW_GRID| Grid distributed over                                   128 processors
 PW_GRID| Real space group dimensions                                     8   16
 PW_GRID| the grid is blocked:                                                NO
 PW_GRID| Cutoff [a.u.]                                                      3.7
 PW_GRID| spherical cutoff:                                                   NO
 PW_GRID|   Bounds   1             -6       5                Points:          12
 PW_GRID|   Bounds   2             -6       5                Points:          12
 PW_GRID|   Bounds   3            -18      17                Points:          36
 PW_GRID| Volume element (a.u.^3)   1.280         Volume (a.u.^3)      6635.2971
 PW_GRID| Grid span                                                    FULLSPACE
 PW_GRID|   Distribution                         Average         Max         Min
 PW_GRID|   G-Vectors                               40.5        1296           0
 PW_GRID|   G-Rays                                   3.4         108           0
 PW_GRID|   Real Space Points                       40.5          72           0

 POISSON| Solver                                                        PERIODIC
 POISSON| Periodicity                                                        XYZ

 RS_GRID| Information for grid number                                          1
 RS_GRID|   Bounds   1            -54      53                Points:         108
 RS_GRID|   Bounds   2            -54      53                Points:         108
 RS_GRID|   Bounds   3           -150     149                Points:         300
 RS_GRID| Real space distribution over                                  8 groups
 RS_GRID| Real space distribution along direction                              2
 RS_GRID| Border size                                                         28
 RS_GRID| Real space distribution over                                 16 groups
 RS_GRID| Real space distribution along direction                              3
 RS_GRID| Border size                                                         28
 RS_GRID|   Distribution                         Average         Max         Min
 RS_GRID|   Planes                                  69.5          70          69
 RS_GRID|   Distribution                         Average         Max         Min
 RS_GRID|   Planes                                  74.8          75          74

 RS_GRID| Information for grid number                                          2
 RS_GRID|   Bounds   1            -30      29                Points:          60
 RS_GRID|   Bounds   2            -30      29                Points:          60
 RS_GRID|   Bounds   3            -90      89                Points:         180
 RS_GRID| Real space fully replicated
 RS_GRID| Group size                                                           1

 RS_GRID| Information for grid number                                          3
 RS_GRID|   Bounds   1            -18      17                Points:          36
 RS_GRID|   Bounds   2            -18      17                Points:          36
 RS_GRID|   Bounds   3            -50      49                Points:         100
 RS_GRID| Real space fully replicated
 RS_GRID| Group size                                                           1

 RS_GRID| Information for grid number                                          4
 RS_GRID|   Bounds   1            -10       9                Points:          20
 RS_GRID|   Bounds   2            -10       9                Points:          20
 RS_GRID|   Bounds   3            -30      29                Points:          60
 RS_GRID| Real space fully replicated
 RS_GRID| Group size                                                           1

 RS_GRID| Information for grid number                                          5
 RS_GRID|   Bounds   1             -6       5                Points:          12
 RS_GRID|   Bounds   2             -6       5                Points:          12
 RS_GRID|   Bounds   3            -18      17                Points:          36
 RS_GRID| Real space fully replicated
 RS_GRID| Group size                                                           1

 Spin 1

 Number of electrons:                                                        296.480
 Number of occupied orbitals:                                                297
 Number of molecular orbitals:                                               832

 Spin 2

 Number of electrons:                                                        279.520
 Number of occupied orbitals:                                                280
 Number of molecular orbitals:                                               832

 Number of orbital functions:                                                832
 Number of independent orbital functions:                                    832

 Extrapolation method: initial_guess

 Atomic guess: The first density matrix is obtained in terms of atomic orbitals
               and electronic configurations assigned to each atomic kind

 Guess for atomic kind: Ni_i

 Electronic structure
    Total number of core electrons                                         10.00
    Total number of valence electrons                                      18.00
    Total number of electrons                                              28.00
    Multiplicity                                                         doublet
    Alpha Electrons
    S   [  1.00  1.00] 1.00  1.00
    P   [  3.00] 3.00
    D      4.40
    Beta Electrons
    S   [  1.00  1.00] 1.00  1.00
    P   [  3.00] 3.00
    D      3.60


 *******************************************************************************
                  Iteration          Convergence                     Energy [au]
 *******************************************************************************
                          1         1.51750                    -167.068932204718
                          2         15.5935                    -156.656530566819
                          3         2.37322                    -168.320625176021
                          4        0.215236                    -168.611142488999
                          5        0.864690E-01                -168.614185977773
                          6        0.204270E-01                -168.614864366588
                          7        0.117629E-02                -168.614962284536
                          8        0.143499E-02                -168.614962241165
                          9        0.165550E-03                -168.614962454733
                         10        0.801651E-03                -168.614962414936
                         11        0.526340E-03                -168.614962440154
                         12        0.114214E-03                -168.614962458210
                         13        0.974554E-04                -168.614962459061
                         14        0.103837E-03                -168.614962459937
                         15        0.922182E-04                -168.614962460311
                         16        0.489415E-04                -168.614962460739
                         17        0.376531E-04                -168.614962461148
                         18        0.319337E-04                -168.614962461185
                         19        0.537275E-04                -168.614962461068
                         20        0.409549E-04                -168.614962461145
                         21        0.226152E-04                -168.614962461237
                         22        0.174462E-04                -168.614962461257
                         23        0.165586E-04                -168.614962461260
                         24        0.160650E-04                -168.614962461262
                         25        0.113583E-04                -168.614962461280
                         26        0.503754E-05                -168.614962461287
                         27        0.239088E-05                -168.614962461289
                         28        0.206656E-05                -168.614962461289
                         29        0.678810E-06                -168.614962461289

 Energy components [Hartree]           Total Energy ::         -168.614962461289
                                        Band Energy ::          -26.570438398031
                                     Kinetic Energy ::           97.308645535822
                                   Potential Energy ::         -265.923607997111
                                      Virial (-V/T) ::            2.732785011371
                                        Core Energy ::         -299.569105195415
                                          XC Energy ::          -16.228812263913
                                     Coulomb Energy ::          147.182954998038
                       Total Pseudopotential Energy ::         -396.964091881334
                       Local Pseudopotential Energy ::         -362.650332264705
                    Nonlocal Pseudopotential Energy ::          -34.313759616629
                                        Confinement ::            0.863411500974

 Orbital energies  State     Spin  L     Occupation   Energy[a.u.]    Energy[eV]

                       1    alpha  0          1.000      -4.174802   -113.602130
                       2    alpha  0          1.000      -0.181779     -4.946449
                       1     beta  0          1.000      -4.138200   -112.606137
                       2     beta  0          1.000      -0.175997     -4.789129

                       1    alpha  1          3.000      -2.580817    -70.227599
                       1     beta  1          3.000      -2.545205    -69.258560

                       1    alpha  2          4.400      -0.328813     -8.947444
                       1     beta  2          3.600      -0.298561     -8.124256


 Total Electron Density at R=0:                                         0.030417

 Guess for atomic kind: Ni_b

 Electronic structure
    Total number of core electrons                                         10.00
    Total number of valence electrons                                      18.00
    Total number of electrons                                              28.00
    Multiplicity                                                         singlet
    Alpha Electrons
    S   [  1.00  1.00] 1.00  1.00
    P   [  3.00] 3.00
    D      4.13
    Beta Electrons
    S   [  1.00  1.00] 1.00  1.00
    P   [  3.00] 3.00
    D      3.87


 *******************************************************************************
                  Iteration          Convergence                     Energy [au]
 *******************************************************************************
                          1         1.51635                    -167.063179942427
                          2         14.4884                    -156.603524486360
                          3         2.16011                    -168.315748001558
                          4        0.167393                    -168.606422942906
                          5        0.574839E-01                -168.609178199443
                          6        0.746665E-02                -168.609540854762
                          7        0.456054E-02                -168.609548767509
                          8        0.678002E-02                -168.609547193915
                          9        0.132753E-02                -168.609550633969
                         10        0.933605E-03                -168.609550805007
                         11        0.100845E-02                -168.609550783930
                         12        0.690062E-03                -168.609550913764
                         13        0.951359E-03                -168.609550883371
                         14        0.392733E-03                -168.609550975150
                         15        0.207201E-03                -168.609550980613
                         16        0.103116E-03                -168.609550984747
                         17        0.246057E-03                -168.609550981374
                         18        0.279641E-03                -168.609550980128
                         19        0.887884E-04                -168.609550985724
                         20        0.977589E-04                -168.609550985904
                         21        0.101258E-03                -168.609550985887
                         22        0.100813E-03                -168.609550985911
                         23        0.994814E-04                -168.609550985935
                         24        0.680283E-04                -168.609550986517
                         25        0.478808E-04                -168.609550986722
                         26        0.462768E-04                -168.609550986733
                         27        0.455865E-04                -168.609550986738
                         28        0.457882E-04                -168.609550986736
                         29        0.503574E-04                -168.609550986703
                         30        0.307861E-04                -168.609550986829
                         31        0.184808E-04                -168.609550986892
                         32        0.184764E-04                -168.609550986892
                         33        0.184690E-04                -168.609550986892
                         34        0.184508E-04                -168.609550986893
                         35        0.146379E-04                -168.609550986903
                         36        0.339863E-05                -168.609550986925
                         37        0.226067E-05                -168.609550986926
                         38        0.247162E-05                -168.609550986926
                         39        0.256467E-05                -168.609550986926
                         40        0.297815E-05                -168.609550986926
                         41        0.164953E-05                -168.609550986926
                         42        0.138977E-05                -168.609550986926
                         43        0.929583E-06                -168.609550986927

 Energy components [Hartree]           Total Energy ::         -168.609550986927
                                        Band Energy ::          -26.567848224786
                                     Kinetic Energy ::           97.301328048270
                                   Potential Energy ::         -265.910879035197
                                      Virial (-V/T) ::            2.732859708793
                                        Core Energy ::         -299.564826718487
                                          XC Energy ::          -16.222619341408
                                     Coulomb Energy ::          147.177895072969
                       Total Pseudopotential Energy ::         -396.952495125402
                       Local Pseudopotential Energy ::         -362.642570832305
                    Nonlocal Pseudopotential Energy ::          -34.309924293097
                                        Confinement ::            0.863403586445

 Orbital energies  State     Spin  L     Occupation   Energy[a.u.]    Energy[eV]

                       1    alpha  0          1.000      -4.163030   -113.281808
                       2    alpha  0          1.000      -0.179879     -4.894760
                       1     beta  0          1.000      -4.151135   -112.958115
                       2     beta  0          1.000      -0.178001     -4.843649

                       1    alpha  1          3.000      -2.569363    -69.915921
                       1     beta  1          3.000      -2.557789    -69.600991

                       1    alpha  2          4.130      -0.319050     -8.681787
                       1     beta  2          3.870      -0.309217     -8.414229


 Total Electron Density at R=0:                                         0.030435

 Spin 1
 Re-scaling the density matrix to get the right number of electrons for spin 1
                  # Electrons              Trace(P)               Scaling factor
                        296.480             296.480                        1.000

 Spin 2
[...]
   132 Broy./Diag. 0.80E-01    1.5     0.01208240     -5418.1246595559 -2.11E-02
   133 Broy./Diag. 0.80E-01    1.5     0.00560130     -5418.2524899990 -1.28E-01
   134 Broy./Diag. 0.80E-01    1.5     0.01863362     -5418.1909001375  6.16E-02
   135 Broy./Diag. 0.80E-01    1.5     0.08601600     -5418.2454966591 -5.46E-02
   136 Broy./Diag. 0.80E-01    1.5     0.02646362     -5418.0503732462  1.95E-01
   137 Broy./Diag. 0.80E-01    1.5     0.25144207     -5418.1924416277 -1.42E-01
   138 Broy./Diag. 0.80E-01    1.5     0.27215562     -5419.2413065169 -1.05E+00
   139 Broy./Diag. 0.80E-01    1.5     0.07231091     -5417.9566426442  1.28E+00
   140 Broy./Diag. 0.80E-01    1.5     0.05266120     -5418.1437254762 -1.87E-01
   141 Broy./Diag. 0.80E-01    1.5     0.01532711     -5418.6521930701 -5.08E-01
   142 Broy./Diag. 0.80E-01    1.5     0.03950012     -5418.7309288375 -7.87E-02
   143 Broy./Diag. 0.80E-01    1.5     0.04120714     -5418.9633350779 -2.32E-01
   144 Broy./Diag. 0.80E-01    1.5     0.04272275     -5418.6514604303  3.12E-01
   145 Broy./Diag. 0.80E-01    1.5     0.04499932     -5419.1627102279 -5.11E-01
   146 Broy./Diag. 0.80E-01    1.5     0.14122288     -5419.0962887872  6.64E-02
   147 Broy./Diag. 0.80E-01    1.5     0.03210952     -5418.4794564277  6.17E-01
   148 Broy./Diag. 0.80E-01    1.5     0.03402861     -5418.6386461586 -1.59E-01
   149 Broy./Diag. 0.80E-01    1.5     0.15011761     -5418.8711858740 -2.33E-01
   150 Broy./Diag. 0.80E-01    1.5     0.36743593     -5419.4690003484 -5.98E-01
   151 Broy./Diag. 0.80E-01    1.5     0.15500555     -5417.4468300334  2.02E+00
   152 Broy./Diag. 0.80E-01    1.5     0.04827110     -5417.6089455320 -1.62E-01
   153 Broy./Diag. 0.80E-01    1.5     0.04055006     -5417.5860731186  2.29E-02
   154 Broy./Diag. 0.80E-01    1.5     0.24474957     -5417.7779659590 -1.92E-01
   155 Broy./Diag. 0.80E-01    1.5     0.28934102     -5418.1385025745 -3.61E-01
   156 Broy./Diag. 0.80E-01    1.5     0.03642547     -5417.4698872202  6.69E-01
   157 Broy./Diag. 0.80E-01    1.5     0.03429453     -5417.4488175622  2.11E-02
   158 Broy./Diag. 0.80E-01    1.5     0.05217614     -5417.6415782764 -1.93E-01
   159 Broy./Diag. 0.80E-01    1.5     0.06040503     -5417.5252437598  1.16E-01
   160 Broy./Diag. 0.80E-01    1.5     0.02161353     -5417.2132964782  3.12E-01
   161 Broy./Diag. 0.80E-01    1.5     0.05133037     -5417.2601192115 -4.68E-02
   162 Broy./Diag. 0.80E-01    1.5     0.01486545     -5417.1178318434  1.42E-01
   163 Broy./Diag. 0.80E-01    1.5     0.01125365     -5417.2926460377 -1.75E-01
   164 Broy./Diag. 0.80E-01    1.5     0.31051137     -5417.8453089871 -5.53E-01
   165 Broy./Diag. 0.80E-01    1.5     0.14934995     -5418.7116047626 -8.66E-01
   166 Broy./Diag. 0.80E-01    1.5     0.02276454     -5417.7296810657  9.82E-01
   167 Broy./Diag. 0.80E-01    1.5     0.09594199     -5416.7548521904  9.75E-01
   168 Broy./Diag. 0.80E-01    1.5     0.04038439     -5416.8583920296 -1.04E-01
   169 Broy./Diag. 0.80E-01    1.5     0.03296675     -5416.9021645341 -4.38E-02
   170 Broy./Diag. 0.80E-01    1.5     0.01668035     -5417.6575508012 -7.55E-01
   171 Broy./Diag. 0.80E-01    1.5     0.04940874     -5417.5754841991  8.21E-02
   172 Broy./Diag. 0.80E-01    1.5     0.02329405     -5417.8341375014 -2.59E-01
   173 Broy./Diag. 0.80E-01    1.5     0.17711117     -5418.0206520413 -1.87E-01
   174 Broy./Diag. 0.80E-01    1.5     0.32149162     -5418.3192646935 -2.99E-01
   175 Broy./Diag. 0.80E-01    1.5     0.13728563     -5419.3914001340 -1.07E+00
   176 Broy./Diag. 0.80E-01    1.5     0.11066562     -5418.9954263345  3.96E-01
   177 Broy./Diag. 0.80E-01    1.5     0.02286799     -5418.5121447356  4.83E-01
   178 Broy./Diag. 0.80E-01    1.5     0.03652778     -5418.5601183302 -4.80E-02
   179 Broy./Diag. 0.80E-01    1.5     0.05335109     -5418.5479028771  1.22E-02
   180 Broy./Diag. 0.80E-01    1.5     0.18351915     -5418.3433057027  2.05E-01
   181 Broy./Diag. 0.80E-01    1.5     0.05531978     -5417.8625546248  4.81E-01
   182 Broy./Diag. 0.80E-01    1.5     0.02366893     -5419.0150505763 -1.15E+00
   183 Broy./Diag. 0.80E-01    1.5     0.02293633     -5419.1328880862 -1.18E-01
   184 Broy./Diag. 0.80E-01    1.5     0.01255709     -5419.3832938160 -2.50E-01
   185 Broy./Diag. 0.80E-01    1.5     0.09607351     -5419.3266771870  5.66E-02
   186 Broy./Diag. 0.80E-01    1.5     0.12656147     -5419.5124309642 -1.86E-01
   187 Broy./Diag. 0.80E-01    1.5     0.05496811     -5417.8093876708  1.70E+00
   188 Broy./Diag. 0.80E-01    1.5     0.03520543     -5417.5023736607  3.07E-01
   189 Broy./Diag. 0.80E-01    1.5     0.18485616     -5416.7009099721  8.01E-01
   190 Broy./Diag. 0.80E-01    1.5     0.07940481     -5418.0499421670 -1.35E+00
   191 Broy./Diag. 0.80E-01    1.5     0.05385948     -5418.3296033243 -2.80E-01
   192 Broy./Diag. 0.80E-01    1.5     0.22231551     -5418.6788540938 -3.49E-01
   193 Broy./Diag. 0.80E-01    1.5     0.04085122     -5418.8119237432 -1.33E-01
   194 Broy./Diag. 0.80E-01    1.5     0.10850580     -5417.2396539627  1.57E+00
   195 Broy./Diag. 0.80E-01    1.5     0.03667931     -5418.9721548917 -1.73E+00
   196 Broy./Diag. 0.80E-01    1.5     0.00798755     -5419.1142074970 -1.42E-01
   197 Broy./Diag. 0.80E-01    1.5     0.08725359     -5419.1478260114 -3.36E-02
   198 Broy./Diag. 0.80E-01    1.5     0.02201918     -5418.8907068156  2.57E-01
   199 Broy./Diag. 0.80E-01    1.5     0.12486178     -5419.2640217549 -3.73E-01
   200 Broy./Diag. 0.80E-01    1.5     0.11985241     -5418.0026071124  1.26E+00
   201 Broy./Diag. 0.80E-01    1.5     0.03748769     -5418.0392669684 -3.67E-02
   202 Broy./Diag. 0.80E-01    1.5     0.05953787     -5418.1036493105 -6.44E-02
   203 Broy./Diag. 0.80E-01    1.5     0.00680683     -5418.3117436488 -2.08E-01
   204 Broy./Diag. 0.80E-01    1.5     0.07046303     -5418.1646913856  1.47E-01
   205 Broy./Diag. 0.80E-01    1.5     0.06629218     -5418.2336953200 -6.90E-02
   206 Broy./Diag. 0.80E-01    1.5     0.01647526     -5418.1857120302  4.80E-02
   207 Broy./Diag. 0.80E-01    1.5     0.05623448     -5417.9562959339  2.29E-01
   208 Broy./Diag. 0.80E-01    1.5     0.34109842     -5417.7011670863  2.55E-01
   209 Broy./Diag. 0.80E-01    1.5     0.31548712     -5418.5885218327 -8.87E-01
   210 Broy./Diag. 0.80E-01    1.5     0.05823237     -5418.3685080714  2.20E-01
   211 Broy./Diag. 0.80E-01    1.5     0.05858123     -5418.2427452436  1.26E-01
   212 Broy./Diag. 0.80E-01    1.5     0.08291228     -5418.2360862455  6.66E-03
   213 Broy./Diag. 0.80E-01    1.5     0.02160042     -5418.2547750335 -1.87E-02
   214 Broy./Diag. 0.80E-01    1.5     0.04879579     -5418.2304928315  2.43E-02
   215 Broy./Diag. 0.80E-01    1.5     0.04343412     -5418.2734011908 -4.29E-02
   216 Broy./Diag. 0.80E-01    1.5     0.10816641     -5418.0587350068  2.15E-01
   217 Broy./Diag. 0.80E-01    1.5     0.02777047     -5418.3291705449 -2.70E-01
   218 Broy./Diag. 0.80E-01    1.5     0.34421290     -5418.7196999551 -3.91E-01
   219 Broy./Diag. 0.80E-01    1.5     0.59145531     -5420.9900295043 -2.27E+00
   220 Broy./Diag. 0.80E-01    1.5     0.04319111     -5416.8486215294  4.14E+00
   221 Broy./Diag. 0.80E-01    1.5     0.00647623     -5416.5716547509  2.77E-01
   222 Broy./Diag. 0.80E-01    1.5     0.04969123     -5416.1483571217  4.23E-01
   223 Broy./Diag. 0.80E-01    1.5     0.01978276     -5416.0272242702  1.21E-01
   224 Broy./Diag. 0.80E-01    1.5     0.05407287     -5416.2272584990 -2.00E-01
   225 Broy./Diag. 0.80E-01    1.5     0.01922262     -5416.1780616281  4.92E-02
   226 Broy./Diag. 0.80E-01    1.5     0.10925497     -5416.8854714649 -7.07E-01
   227 Broy./Diag. 0.80E-01    1.5     0.16437345     -5417.9862950158 -1.10E+00
   228 Broy./Diag. 0.80E-01    1.5     0.45062092     -5422.3053454335 -4.32E+00
   229 Broy./Diag. 0.80E-01    1.5     0.07601256     -5415.6458079886  6.66E+00
   230 Broy./Diag. 0.80E-01    1.5     0.06854507     -5417.1252290776 -1.48E+00
   231 Broy./Diag. 0.80E-01    1.5     0.03462936     -5416.7369358927  3.88E-01
   232 Broy./Diag. 0.80E-01    1.5     0.09417885     -5416.2227373763  5.14E-01
   233 Broy./Diag. 0.80E-01    1.5     0.07387443     -5415.8660455767  3.57E-01
   234 Broy./Diag. 0.80E-01    1.5     0.11372173     -5416.4760417947 -6.10E-01
   235 Broy./Diag. 0.80E-01    1.5     0.12947605     -5417.3913409803 -9.15E-01
   236 Broy./Diag. 0.80E-01    1.5     0.20448009     -5416.3899457851  1.00E+00
   237 Broy./Diag. 0.80E-01    1.5     0.10855622     -5420.4553066296 -4.07E+00
   238 Broy./Diag. 0.80E-01    1.5     0.11079504     -5421.6901781037 -1.23E+00
   239 Broy./Diag. 0.80E-01    1.5     0.23010570     -5420.7292121494  9.61E-01
   240 Broy./Diag. 0.80E-01    1.5     0.12073219     -5419.6732463600  1.06E+00
   241 Broy./Diag. 0.80E-01    1.5     0.10367177     -5419.3917114163  2.82E-01
   242 Broy./Diag. 0.80E-01    1.5     0.03083519     -5419.7249663523 -3.33E-01
   243 Broy./Diag. 0.80E-01    1.5     0.26948145     -5419.8630654274 -1.38E-01
   244 Broy./Diag. 0.80E-01    1.5     0.07173453     -5417.1144070293  2.75E+00
   245 Broy./Diag. 0.80E-01    1.5     0.03628463     -5422.1650891778 -5.05E+00
   246 Broy./Diag. 0.80E-01    1.5     0.00865792     -5421.1615661093  1.00E+00
   247 Broy./Diag. 0.80E-01    1.5     0.12760999     -5421.1153531685  4.62E-02
   248 Broy./Diag. 0.80E-01    1.5     0.38009963     -5421.5101833120 -3.95E-01
   249 Broy./Diag. 0.80E-01    1.5     0.14481913     -5418.7587063502  2.75E+00
   250 Broy./Diag. 0.80E-01    1.5     0.01436970     -5418.1732730103  5.85E-01
   251 Broy./Diag. 0.80E-01    1.5     0.03787017     -5418.0952138616  7.81E-02
   252 Broy./Diag. 0.80E-01    1.5     0.05014717     -5417.8814540415  2.14E-01
   253 Broy./Diag. 0.80E-01    1.5     0.03841701     -5418.1120659610 -2.31E-01
   254 Broy./Diag. 0.80E-01    1.5     0.02899839     -5417.6719300111  4.40E-01
   255 Broy./Diag. 0.80E-01    1.5     0.04133836     -5417.9032344336 -2.31E-01
   256 Broy./Diag. 0.80E-01    1.5     0.05417030     -5418.1533926256 -2.50E-01
   257 Broy./Diag. 0.80E-01    1.5     0.35462134     -5418.1689468024 -1.56E-02
   258 Broy./Diag. 0.80E-01    1.5     0.07027220     -5419.3434845275 -1.17E+00
   259 Broy./Diag. 0.80E-01    1.5     0.13390299     -5420.0632496359 -7.20E-01
   260 Broy./Diag. 0.80E-01    1.5     0.18862166     -5420.4290231210 -3.66E-01
   261 Broy./Diag. 0.80E-01    1.5     0.02506065     -5418.9495677968  1.48E+00
   262 Broy./Diag. 0.80E-01    1.5     0.12694897     -5418.8525722068  9.70E-02
   263 Broy./Diag. 0.80E-01    1.5     0.10307084     -5417.9652221135  8.87E-01
   264 Broy./Diag. 0.80E-01    1.5     0.06325096     -5413.5729024497  4.39E+00
   265 Broy./Diag. 0.80E-01    1.5     0.05915951     -5414.9948042877 -1.42E+00
   266 Broy./Diag. 0.80E-01    1.5     0.33815849     -5415.7214233215 -7.27E-01
   267 Broy./Diag. 0.80E-01    1.5     0.03969207     -5417.1844656798 -1.46E+00
   268 Broy./Diag. 0.80E-01    1.5     0.09811546     -5417.1721224243  1.23E-02
   269 Broy./Diag. 0.80E-01    1.5     0.11271458     -5414.0783661351  3.09E+00
   270 Broy./Diag. 0.80E-01    1.5     0.11451520     -5414.7202227949 -6.42E-01
   271 Broy./Diag. 0.80E-01    1.5     0.09821232     -5418.0580431584 -3.34E+00
   272 Broy./Diag. 0.80E-01    1.5     0.12089190     -5418.0319214349  2.61E-02
   273 Broy./Diag. 0.80E-01    1.5     0.15847475     -5418.2555821232 -2.24E-01
   274 Broy./Diag. 0.80E-01    1.5     0.14722267     -5418.9219246793 -6.66E-01
   275 Broy./Diag. 0.80E-01    1.5     0.08548531     -5419.7600394469 -8.38E-01
   276 Broy./Diag. 0.80E-01    1.5     0.05496867     -5419.3925270351  3.68E-01
   277 Broy./Diag. 0.80E-01    1.5     0.16945251     -5418.5204723306  8.72E-01
   278 Broy./Diag. 0.80E-01    1.5     0.42683809     -5418.8936572088 -3.73E-01
   279 Broy./Diag. 0.80E-01    1.5     0.12897241     -5419.9835378812 -1.09E+00
   280 Broy./Diag. 0.80E-01    1.5     0.01909350     -5419.9195119067  6.40E-02
   281 Broy./Diag. 0.80E-01    1.5     0.11952877     -5419.6819138862  2.38E-01
   282 Broy./Diag. 0.80E-01    1.5     0.09515263     -5419.7259893621 -4.41E-02
   283 Broy./Diag. 0.80E-01    1.5     0.17102644     -5419.5624625850  1.64E-01
   284 Broy./Diag. 0.80E-01    1.5     0.13443161     -5418.2338221419  1.33E+00
   285 Broy./Diag. 0.80E-01    1.5     0.02521625     -5418.9577157052 -7.24E-01
   286 Broy./Diag. 0.80E-01    1.5     0.28273697     -5418.3483264978  6.09E-01
   287 Broy./Diag. 0.80E-01    1.5     0.44131488     -5417.6642998195  6.84E-01
   288 Broy./Diag. 0.80E-01    1.5     0.48874527     -5418.9512961225 -1.29E+00
   289 Broy./Diag. 0.80E-01    1.5     0.10559229     -5417.1591171680  1.79E+00
   290 Broy./Diag. 0.80E-01    1.5     0.07718302     -5416.9698081404  1.89E-01
   291 Broy./Diag. 0.80E-01    1.5     0.22536097     -5417.0767595093 -1.07E-01
   292 Broy./Diag. 0.80E-01    1.5     0.09792641     -5417.0860296717 -9.27E-03
   293 Broy./Diag. 0.80E-01    1.5     0.10407401     -5415.2809329946  1.81E+00
   294 Broy./Diag. 0.80E-01    1.5     0.01917923     -5416.8274171568 -1.55E+00
   295 Broy./Diag. 0.80E-01    1.5     0.09499795     -5416.7930802864  3.43E-02
   296 Broy./Diag. 0.80E-01    1.5     0.19015832     -5416.3088598690  4.84E-01
   297 Broy./Diag. 0.80E-01    1.5     0.06502476     -5415.7869529586  5.22E-01
   298 Broy./Diag. 0.80E-01    1.5     0.01555970     -5417.3620698854 -1.58E+00
   299 Broy./Diag. 0.80E-01    1.5     0.02417441     -5417.1979267250  1.64E-01
   300 Broy./Diag. 0.80E-01    1.5     0.00543145     -5417.0961842530  1.02E-01
   301 Broy./Diag. 0.80E-01    1.5     0.36392641     -5417.3510954701 -2.55E-01
   302 Broy./Diag. 0.80E-01    1.5     0.14128718     -5419.1446805948 -1.79E+00
   303 Broy./Diag. 0.80E-01    1.5     0.46114583     -5416.7853868882  2.36E+00
   304 Broy./Diag. 0.80E-01    1.5     0.24776418     -5416.6265089136  1.59E-01
   305 Broy./Diag. 0.80E-01    1.5     0.09909203     -5415.7260499160  9.00E-01
   306 Broy./Diag. 0.80E-01    1.5     0.02209622     -5416.1105250878 -3.84E-01
   307 Broy./Diag. 0.80E-01    1.5     0.02702817     -5416.3696808736 -2.59E-01
   308 Broy./Diag. 0.80E-01    1.5     0.03559852     -5416.8169743514 -4.47E-01
   309 Broy./Diag. 0.80E-01    1.5     0.04583621     -5416.6367370224  1.80E-01
   310 Broy./Diag. 0.80E-01    1.5     0.02148932     -5417.3134704493 -6.77E-01
   311 Broy./Diag. 0.80E-01    1.5     0.05850404     -5416.6779167029  6.36E-01
   312 Broy./Diag. 0.80E-01    1.5     0.11158149     -5417.1735321319 -4.96E-01
   313 Broy./Diag. 0.80E-01    1.5     0.08616655     -5418.5947623498 -1.42E+00
   314 Broy./Diag. 0.80E-01    1.5     0.11566210     -5419.4341698840 -8.39E-01
   315 Broy./Diag. 0.80E-01    1.5     0.05797516     -5422.1490881743 -2.71E+00
   316 Broy./Diag. 0.80E-01    1.5     0.02160751     -5424.5520822782 -2.40E+00
   317 Broy./Diag. 0.80E-01    1.5     0.10954748     -5425.9264240890 -1.37E+00
   318 Broy./Diag. 0.80E-01    1.5     0.03650888     -5426.4302495511 -5.04E-01
   319 Broy./Diag. 0.80E-01    1.5     0.08609126     -5425.6892137675  7.41E-01
   320 Broy./Diag. 0.80E-01    1.5     0.02412644     -5423.6330624118  2.06E+00
   321 Broy./Diag. 0.80E-01    1.5     0.06312160     -5422.8976636463  7.35E-01
   322 Broy./Diag. 0.80E-01    1.5     0.07712364     -5420.9071118630  1.99E+00
   323 Broy./Diag. 0.80E-01    1.5     0.02080313     -5419.7979546535  1.11E+00
   324 Broy./Diag. 0.80E-01    1.5     0.04528027     -5418.9655943231  8.32E-01
   325 Broy./Diag. 0.80E-01    1.5     0.04455046     -5417.9775665388  9.88E-01
   326 Broy./Diag. 0.80E-01    1.5     0.01601726     -5417.7504154315  2.27E-01
   327 Broy./Diag. 0.80E-01    1.5     0.01724098     -5417.2353350416  5.15E-01
   328 Broy./Diag. 0.80E-01    1.5     0.01423825     -5417.1149932604  1.20E-01
   329 Broy./Diag. 0.80E-01    1.5     0.04504259     -5417.4898106048 -3.75E-01
   330 Broy./Diag. 0.80E-01    1.5     0.01983091     -5417.3146678146  1.75E-01
   331 Broy./Diag. 0.80E-01    1.5     0.01779605     -5417.6033929923 -2.89E-01
   332 Broy./Diag. 0.80E-01    1.5     0.05078909     -5417.4679717343  1.35E-01
   333 Broy./Diag. 0.80E-01    1.5     0.04398742     -5414.6156777354  2.85E+00
   334 Broy./Diag. 0.80E-01    1.5     0.06196119     -5415.7454839098 -1.13E+00
   335 Broy./Diag. 0.80E-01    1.5     0.20336196     -5417.0542842526 -1.31E+00
   336 Broy./Diag. 0.80E-01    1.5     0.25723080     -5418.1632950846 -1.11E+00
   337 Broy./Diag. 0.80E-01    1.5     0.07474609     -5418.7750800157 -6.12E-01
   338 Broy./Diag. 0.80E-01    1.5     0.05116060     -5416.2551951621  2.52E+00
   339 Broy./Diag. 0.80E-01    1.5     0.29002478     -5416.2523076518  2.89E-03
   340 Broy./Diag. 0.80E-01    1.5     0.18007154     -5415.5404880306  7.12E-01
   341 Broy./Diag. 0.80E-01    1.5     0.14190820     -5418.8462295987 -3.31E+00
   342 Broy./Diag. 0.80E-01    1.5     0.07577461     -5420.8282663248 -1.98E+00
   343 Broy./Diag. 0.80E-01    1.5     0.02000474     -5420.9714012978 -1.43E-01
   344 Broy./Diag. 0.80E-01    1.5     0.07088568     -5419.0811412192  1.89E+00
   345 Broy./Diag. 0.80E-01    1.5     0.28051140     -5417.9235437038  1.16E+00
   346 Broy./Diag. 0.80E-01    1.5     0.04949598     -5418.0604131593 -1.37E-01
   347 Broy./Diag. 0.80E-01    1.5     0.13351684     -5418.0627241004 -2.31E-03
   348 Broy./Diag. 0.80E-01    1.5     0.04152652     -5417.8941400812  1.69E-01
   349 Broy./Diag. 0.80E-01    1.5     0.13747114     -5417.9629125099 -6.88E-02
   350 Broy./Diag. 0.80E-01    1.5     0.03845174     -5418.4689827718 -5.06E-01
   351 Broy./Diag. 0.80E-01    1.5     0.11318286     -5417.9571412111  5.12E-01
   352 Broy./Diag. 0.80E-01    1.5     0.26613001     -5417.6827578999  2.74E-01
   353 Broy./Diag. 0.80E-01    1.5     0.04819138     -5416.7303111120  9.52E-01
   354 Broy./Diag. 0.80E-01    1.5     0.09573620     -5417.0949731422 -3.65E-01
   355 Broy./Diag. 0.80E-01    1.5     0.14055608     -5417.7032773048 -6.08E-01
   356 Broy./Diag. 0.80E-01    1.5     0.10617654     -5417.1975117074  5.06E-01
   357 Broy./Diag. 0.80E-01    1.5     0.08376099     -5418.1883074011 -9.91E-01
   358 Broy./Diag. 0.80E-01    1.5     0.04577277     -5418.3207081987 -1.32E-01
   359 Broy./Diag. 0.80E-01    1.5     0.04618148     -5418.6257163683 -3.05E-01
   360 Broy./Diag. 0.80E-01    1.5     0.08479171     -5418.4979974850  1.28E-01
   361 Broy./Diag. 0.80E-01    1.5     0.10829428     -5418.2893237543  2.09E-01
   362 Broy./Diag. 0.80E-01    1.5     0.03832713     -5417.3000495456  9.89E-01
   363 Broy./Diag. 0.80E-01    1.5     0.02255604     -5417.7078499869 -4.08E-01
   364 Broy./Diag. 0.80E-01    1.5     0.02855918     -5417.8475490650 -1.40E-01
   365 Broy./Diag. 0.80E-01    1.5     0.08694813     -5417.7067923969  1.41E-01
   366 Broy./Diag. 0.80E-01    1.5     0.03690398     -5417.5065001342  2.00E-01
   367 Broy./Diag. 0.80E-01    1.5     0.07339847     -5417.1884237274  3.18E-01
   368 Broy./Diag. 0.80E-01    1.5     0.06232266     -5416.0858599239  1.10E+00
   369 Broy./Diag. 0.80E-01    1.5     0.04519923     -5415.1915243318  8.94E-01
   370 Broy./Diag. 0.80E-01    1.5     0.05496746     -5415.3284143066 -1.37E-01
   371 Broy./Diag. 0.80E-01    1.5     0.12560445     -5412.1693426859  3.16E+00
   372 Broy./Diag. 0.80E-01    1.5     0.13675360     -5409.9094783059  2.26E+00
   373 Broy./Diag. 0.80E-01    1.5     0.13318063     -5411.3174091602 -1.41E+00
   374 Broy./Diag. 0.80E-01    1.5     0.05480352     -5412.6201939034 -1.30E+00
   375 Broy./Diag. 0.80E-01    1.5     0.13609476     -5412.7245322631 -1.04E-01
   376 Broy./Diag. 0.80E-01    1.5     0.10741920     -5414.3279824769 -1.60E+00
   377 Broy./Diag. 0.80E-01    1.5     0.38610847     -5414.7634038888 -4.35E-01
