 DBCSR| CPU Multiplication driver                                           XSMM (U)
 DBCSR| Multrec recursion limit                                              512 (U)
 DBCSR| Multiplication stack size                                           1000 (D)
 DBCSR| Maximum elements for images                                    UNLIMITED (U)
 DBCSR| Multiplicative factor virtual images                                   1 (U)
 DBCSR| Use multiplication densification                                       T (D)
 DBCSR| Multiplication size stacks                                             3 (U)
 DBCSR| Use memory pool for CPU allocation                                     F (U)
 DBCSR| Number of 3D layers                                               SINGLE (U)
 DBCSR| Use MPI memory allocation                                              F (U)
 DBCSR| Use RMA algorithm                                                      F (U)
 DBCSR| Use Communication thread                                               T (U)
 DBCSR| Communication thread load                                             87 (D)
 DBCSR| MPI: My process id                                                     0
 DBCSR| MPI: Number of processes                                             128
 DBCSR| OMP: Current number of threads                                         1
 DBCSR| OMP: Max number of threads                                             1
 DBCSR| Split modifier for TAS multiplication algorithm                  1.0E+00 (U)


  **** **** ******  **  PROGRAM STARTED AT               2023-02-14 19:04:52.270
 ***** ** ***  *** **   PROGRAM STARTED ON                             nid003742
 **    ****   ******    PROGRAM STARTED BY                                cahart
 ***** **    ** ** **   PROGRAM PROCESS ID                                200654
  **** **  *******  **  PROGRAM STARTED IN /mnt/lustre/a2fs-work2/work/e05/e05/c
                                           ahart/postdoc/masters/ni/archer2/slab
                                           /optimise/alpha-beta/scf_1e-3_mos-100
                                           0_temp-2000_spin-0.7-0.5_periodic-xyz
                                           /search/1.0E-1_1.0

 CP2K| version string:                 CP2K version 2023.1 (Development Version)
 CP2K| source code revision number:                                  git:964cd58
 CP2K| cp2kflags: omp libint fftw3 libxc elpa parallel scalapack xsmm plumed2 mk
 CP2K|            l
 CP2K| is freely available from                            https://www.cp2k.org/
 CP2K| Program compiled at                          Mon 13 Feb 17:05:14 GMT 2023
 CP2K| Program compiled on                                                  ln01
 CP2K| Program compiled for                                              ARCHER2
 CP2K| Data directory path    /work/e05/e05/cahart/cp2k/cp2k-2023.1/cp2k-2023.1-
 CP2K| Input file name                                                  cp2k.inp

 GLOBAL| Force Environment number                                              1
 GLOBAL| Basis set file name                                        BASIS_MOLOPT
 GLOBAL| Potential file name                                      GTH_POTENTIALS
 GLOBAL| MM Potential file name                                     MM_POTENTIAL
 GLOBAL| Coordinate file name                                      __STD_INPUT__
 GLOBAL| Method name                                                        CP2K
 GLOBAL| Project name                                                    Ni_bulk
 GLOBAL| Run type                                                         ENERGY
 GLOBAL| FFT library                                                       FFTW3
 GLOBAL| Diagonalization library                                            ELPA
 GLOBAL| DGEMM library                                                      BLAS
 GLOBAL| Minimum number of eigenvectors for ELPA usage                        16
 GLOBAL| Orthonormality check for eigenvectors                          DISABLED
 GLOBAL| Matrix multiplication library                                 ScaLAPACK
 GLOBAL| All-to-all communication in single precision                          F
 GLOBAL| FFTs using library dependent lengths                                  F
 GLOBAL| Grid backend                                                       AUTO
 GLOBAL| Global print level                                               MEDIUM
 GLOBAL| MPI I/O enabled                                                       T
 GLOBAL| Total number of message passing processes                           128
 GLOBAL| Number of threads for this process                                    1
 GLOBAL| This output is from process                                           0
 GLOBAL| Stack size for threads created by OpenMP (OMP_STACKSIZE)        default
 GLOBAL| CPU model name                          AMD EPYC 7742 64-Core Processor
 GLOBAL| CPUID                                                              1002

 MEMORY| system memory details [Kb]
 MEMORY|                        rank 0           min           max       average
 MEMORY| MemTotal            263528084     263528084     263528084     263528084
 MEMORY| MemFree             238032268     238032268     238032268     238032268
 MEMORY| Buffers                 32892         32892         32892         32892
 MEMORY| Cached                1122336       1122336       1122336       1122336
 MEMORY| Slab                  1690740       1690740       1690740       1690740
 MEMORY| SReclaimable           107312        107312        107312        107312
 MEMORY| MemLikelyFree       239294808     239294808     239294808     239294808


 *** Fundamental physical constants (SI units) ***

 *** Literature: B. J. Mohr and B. N. Taylor,
 ***             CODATA recommended values of the fundamental physical
 ***             constants: 2006, Web Version 5.1
 ***             http://physics.nist.gov/constants

 Speed of light in vacuum [m/s]                             2.99792458000000E+08
 Magnetic constant or permeability of vacuum [N/A**2]       1.25663706143592E-06
 Electric constant or permittivity of vacuum [F/m]          8.85418781762039E-12
 Planck constant (h) [J*s]                                  6.62606896000000E-34
 Planck constant (h-bar) [J*s]                              1.05457162825177E-34
 Elementary charge [C]                                      1.60217648700000E-19
 Electron mass [kg]                                         9.10938215000000E-31
 Electron g factor [ ]                                     -2.00231930436220E+00
 Proton mass [kg]                                           1.67262163700000E-27
 Fine-structure constant                                    7.29735253760000E-03
 Rydberg constant [1/m]                                     1.09737315685270E+07
 Avogadro constant [1/mol]                                  6.02214179000000E+23
 Boltzmann constant [J/K]                                   1.38065040000000E-23
 Atomic mass unit [kg]                                      1.66053878200000E-27
 Bohr radius [m]                                            5.29177208590000E-11

 *** Conversion factors ***

 [u] -> [a.u.]                                              1.82288848426455E+03
 [Angstrom] -> [Bohr] = [a.u.]                              1.88972613288564E+00
 [a.u.] = [Bohr] -> [Angstrom]                              5.29177208590000E-01
 [a.u.] -> [s]                                              2.41888432650478E-17
 [a.u.] -> [fs]                                             2.41888432650478E-02
 [a.u.] -> [J]                                              4.35974393937059E-18
 [a.u.] -> [N]                                              8.23872205491840E-08
 [a.u.] -> [K]                                              3.15774647902944E+05
 [a.u.] -> [kJ/mol]                                         2.62549961709828E+03
 [a.u.] -> [kcal/mol]                                       6.27509468713739E+02
 [a.u.] -> [Pa]                                             2.94210107994716E+13
 [a.u.] -> [bar]                                            2.94210107994716E+08
 [a.u.] -> [atm]                                            2.90362800883016E+08
 [a.u.] -> [eV]                                             2.72113838565563E+01
 [a.u.] -> [Hz]                                             6.57968392072181E+15
 [a.u.] -> [1/cm] (wave numbers)                            2.19474631370540E+05
 [a.u./Bohr**2] -> [1/cm]                                   5.14048714338585E+03
 

 CELL_TOP| Volume [angstrom^3]:                                       983.249569
 CELL_TOP| Vector a [angstrom     7.012     0.000     0.000   |a| =     7.011596
 CELL_TOP| Vector b [angstrom     0.000     7.012     0.000   |b| =     7.011596
 CELL_TOP| Vector c [angstrom     0.000     0.000    20.000   |c| =    20.000000
 CELL_TOP| Angle (b,c), alpha [degree]:                                90.000000
 CELL_TOP| Angle (a,c), beta  [degree]:                                90.000000
 CELL_TOP| Angle (a,b), gamma [degree]:                                90.000000
 CELL_TOP| Numerically orthorhombic:                                         YES
 CELL_TOP| Periodicity                                                       XYZ

 GENERATE|  Preliminary Number of Bonds generated:                             0
 GENERATE|  Achieved consistency in connectivity generation.

 CELL| Volume [angstrom^3]:                                           983.249569
 CELL| Vector a [angstrom]:       7.012     0.000     0.000   |a| =     7.011596
 CELL| Vector b [angstrom]:       0.000     7.012     0.000   |b| =     7.011596
 CELL| Vector c [angstrom]:       0.000     0.000    20.000   |c| =    20.000000
 CELL| Angle (b,c), alpha [degree]:                                    90.000000
 CELL| Angle (a,c), beta  [degree]:                                    90.000000
 CELL| Angle (a,b), gamma [degree]:                                    90.000000
 CELL| Numerically orthorhombic:                                             YES
 CELL| Periodicity                                                           XYZ

 CELL_REF| Volume [angstrom^3]:                                       983.249569
 CELL_REF| Vector a [angstrom     7.012     0.000     0.000   |a| =     7.011596
 CELL_REF| Vector b [angstrom     0.000     7.012     0.000   |b| =     7.011596
 CELL_REF| Vector c [angstrom     0.000     0.000    20.000   |c| =    20.000000
 CELL_REF| Angle (b,c), alpha [degree]:                                90.000000
 CELL_REF| Angle (a,c), beta  [degree]:                                90.000000
 CELL_REF| Angle (a,b), gamma [degree]:                                90.000000
 CELL_REF| Numerically orthorhombic:                                         YES
 CELL_REF| Periodicity                                                       XYZ

 *** WARNING in cryssym.F:165 :: Symmetry library SPGLIB not available ***


 *******************************************************************************
                                    Kpoints
 *******************************************************************************
 BRILLOUIN| K-point scheme                                        Monkhorst-Pack
 BRILLOUIN| K-Point grid                                             4    4    1
 BRILLOUIN| Accuracy in Symmetry determination                      0.100000E-05
 BRILLOUIN| K-Point point group symmetrization                               OFF
 BRILLOUIN| Wavefunction type                                            COMPLEX
 BRILLOUIN| List of Kpoints [2 Pi/Bohr]                                        8
 BRILLOUIN| Number           Weight            X              Y              Z
 BRILLOUIN|     1           0.12500       -0.37500       -0.37500        0.00000
 BRILLOUIN|     2           0.12500       -0.37500       -0.12500        0.00000
 BRILLOUIN|     3           0.12500       -0.37500        0.12500        0.00000
 BRILLOUIN|     4           0.12500       -0.37500        0.37500        0.00000
 BRILLOUIN|     5           0.12500       -0.12500       -0.37500        0.00000
 BRILLOUIN|     6           0.12500       -0.12500       -0.12500        0.00000
 BRILLOUIN|     7           0.12500       -0.12500        0.12500        0.00000
 BRILLOUIN|     8           0.12500       -0.12500        0.37500        0.00000
 *******************************************************************************

 *******************************************************************************
 *******************************************************************************
 **                                                                           **
 **     #####                         ##              ##                      **
 **    ##   ##            ##          ##              ##                      **
 **   ##     ##                       ##            ######                    **
 **   ##     ##  ##   ##  ##   #####  ##  ##   ####   ##    #####    #####    **
 **   ##     ##  ##   ##  ##  ##      ## ##   ##      ##   ##   ##  ##   ##   **
 **   ##  ## ##  ##   ##  ##  ##      ####     ###    ##   ######   ######    **
 **    ##  ###   ##   ##  ##  ##      ## ##      ##   ##   ##       ##        **
 **     #######   #####   ##   #####  ##  ##  ####    ##    #####   ##        **
 **           ##                                                    ##        **
 **                                                                           **
 **                                                ... make the atoms dance   **
 **                                                                           **
 **            Copyright (C) by CP2K developers group (2000-2023)             **
 **                      J. Chem. Phys. 152, 194103 (2020)                    **
 **                                                                           **
 *******************************************************************************

 *** WARNING in qs_environment.F:1456 :: Number of electrons will be ***
 *** overwritten by NELEC_ALPHA and NELEC_BETA, multiplicity will be ***
 *** ignored.                                                        ***

 Number of electrons should be                                               576
 Sum of NELEC_ALPHA and NELEC_BETA is                                    576.000

 *** WARNING in qs_environment.F:1488 :: NELEC_ALPHA is not an integer, ***
 *** many features will not be supported.                               ***


 *** WARNING in qs_environment.F:1500 :: NELEC_BETA is not an integer, ***
 *** many features will not be supported.                              ***


 *** WARNING in qs_environment.F:1532 :: More ADDED_MOs requested for beta ***
 *** spin than available.                                                  ***


 *** WARNING in qs_environment.F:1548 :: More added MOs requested than     ***
 *** available. The full set of unoccupied MOs will be used. Use           ***
 *** 'ADDED_MOS -1' to always use all available MOs and to get rid of this ***
 *** warning.                                                              ***


 DFT| Spin unrestricted (spin-polarized) Kohn-Sham calculation               UKS
 DFT| Multiplicity                                                             1
 DFT| Number of spin states                                                    2
 DFT| Charge                                                                   0
 DFT| Self-interaction correction (SIC)                                       NO
 DFT| Cutoffs: density                                              1.000000E-10
 DFT|          gradient                                             1.000000E-10
 DFT|          tau                                                  1.000000E-10
 DFT|          cutoff_smoothing_range                               0.000000E+00
 DFT| XC density smoothing                                                  NONE
 DFT| XC derivatives                                                          PW

 FUNCTIONAL| PBE:
 FUNCTIONAL| J.P.Perdew, K.Burke, M.Ernzerhof, Phys. Rev. Letter, vol. 77, n 18,
 FUNCTIONAL|  pp. 3865-3868, (1996){spin polarized}                             

 vdW POTENTIAL|                                                   Pair Potential
 vdW POTENTIAL|          DFT-D3 (Version 3.1)
 vdW POTENTIAL|          Potential Form: S. Grimme et al, JCP 132: 154104 (2010)
 vdW POTENTIAL|          Zero Damping
 vdW POTENTIAL|          Cutoff Radius [Bohr]:                             20.00
 vdW POTENTIAL|          s6 Scaling Factor:                               1.0000
 vdW POTENTIAL|          sr6 Scaling Factor:                              1.2170
 vdW POTENTIAL|          s8 Scaling Factor:                               0.7220
 vdW POTENTIAL|          Cutoff for CN calculation:                   0.1000E-05

 QS| Method:                                                                 GPW
 QS| Density plane wave grid type                        NON-SPHERICAL FULLSPACE
 QS| Number of grid levels:                                                    5
 QS| Density cutoff [a.u.]:                                                300.0
 QS| Multi grid cutoff [a.u.]: 1) grid level                               300.0
 QS|                           2) grid level                               100.0
 QS|                           3) grid level                                33.3
 QS|                           4) grid level                                11.1
 QS|                           5) grid level                                 3.7
 QS| Grid level progression factor:                                          3.0
 QS| Relative density cutoff [a.u.]:                                        30.0
 QS| Interaction thresholds: eps_pgf_orb:                                1.0E-06
 QS|                         eps_filter_matrix:                          0.0E+00
 QS|                         eps_core_charge:                            1.0E-14
 QS|                         eps_rho_gspace:                             1.0E-12
 QS|                         eps_rho_rspace:                             1.0E-12
 QS|                         eps_gvg_rspace:                             1.0E-06
 QS|                         eps_ppl:                                    1.0E-02
 QS|                         eps_ppnl:                                   1.0E-08


 ATOMIC KIND INFORMATION

  1. Atomic kind: Ni_i                                  Number of atoms:      16

     Orbital Basis Set                                        DZVP-MOLOPT-SR-GTH

       Number of orbital shell sets:                                           1
       Number of orbital shells:                                               8
       Number of primitive Cartesian functions:                                6
       Number of Cartesian basis functions:                                   31
       Number of spherical basis functions:                                   26
       Norm type:                                                              2

       Normalised Cartesian orbitals:

                        Set   Shell   Orbital            Exponent    Coefficient

                          1       1    2s               10.077428      -0.684558
                                                         5.847736      -0.844524
                                                         2.494033       1.088856
                                                         0.988355       0.395503
                                                         0.344978       0.010224
                                                         0.099466      -0.003250

                          1       2    3s               10.077428       0.096747
                                                         5.847736       0.162504
                                                         2.494033      -0.297192
                                                         0.988355      -0.319752
                                                         0.344978       0.088318
                                                         0.099466       0.118587

                          1       3    4s               10.077428       0.036437
                                                         5.847736      -0.381480
                                                         2.494033       0.003759
                                                         0.988355      -1.048256
                                                         0.344978       0.855825
                                                         0.099466      -0.176350

                          1       4    3px              10.077428      -3.133913
                                                         5.847736       3.027656
                                                         2.494033       2.353227
                                                         0.988355       0.554184
                                                         0.344978       0.019462
                                                         0.099466      -0.000291
                          1       4    3py              10.077428      -3.133913
                                                         5.847736       3.027656
                                                         2.494033       2.353227
                                                         0.988355       0.554184
                                                         0.344978       0.019462
                                                         0.099466      -0.000291
                          1       4    3pz              10.077428      -3.133913
                                                         5.847736       3.027656
                                                         2.494033       2.353227
                                                         0.988355       0.554184
                                                         0.344978       0.019462
                                                         0.099466      -0.000291

                          1       5    4px              10.077428      -0.112729
                                                         5.847736      -0.114008
                                                         2.494033      -0.347303
                                                         0.988355      -0.110323
                                                         0.344978       0.154096
                                                         0.099466       0.058386
                          1       5    4py              10.077428      -0.112729
                                                         5.847736      -0.114008
                                                         2.494033      -0.347303
                                                         0.988355      -0.110323
                                                         0.344978       0.154096
                                                         0.099466       0.058386
                          1       5    4pz              10.077428      -0.112729
                                                         5.847736      -0.114008
                                                         2.494033      -0.347303
                                                         0.988355      -0.110323
                                                         0.344978       0.154096
                                                         0.099466       0.058386

                          1       6    4dx2             10.077428       8.232726
                                                         5.847736       9.105758
                                                         2.494033       2.849835
                                                         0.988355       0.554319
                                                         0.344978       0.067245
                                                         0.099466       0.001940
                          1       6    4dxy             10.077428      14.259500
                                                         5.847736      15.771636
                                                         2.494033       4.936060
                                                         0.988355       0.960109
                                                         0.344978       0.116472
                                                         0.099466       0.003360
                          1       6    4dxz             10.077428      14.259500
                                                         5.847736      15.771636
                                                         2.494033       4.936060
                                                         0.988355       0.960109
                                                         0.344978       0.116472
                                                         0.099466       0.003360
                          1       6    4dy2             10.077428       8.232726
                                                         5.847736       9.105758
                                                         2.494033       2.849835
                                                         0.988355       0.554319
                                                         0.344978       0.067245
                                                         0.099466       0.001940
                          1       6    4dyz             10.077428      14.259500
                                                         5.847736      15.771636
                                                         2.494033       4.936060
                                                         0.988355       0.960109
                                                         0.344978       0.116472
                                                         0.099466       0.003360
                          1       6    4dz2             10.077428       8.232726
                                                         5.847736       9.105758
                                                         2.494033       2.849835
                                                         0.988355       0.554319
                                                         0.344978       0.067245
                                                         0.099466       0.001940

                          1       7    5dx2             10.077428      -2.715373
                                                         5.847736      -4.020640
                                                         2.494033      -1.397569
                                                         0.988355      -0.076143
                                                         0.344978       0.033435
                                                         0.099466       0.026032
                          1       7    5dxy             10.077428      -4.703164
                                                         5.847736      -6.963952
                                                         2.494033      -2.420661
                                                         0.988355      -0.131883
                                                         0.344978       0.057911
                                                         0.099466       0.045088
                          1       7    5dxz             10.077428      -4.703164
                                                         5.847736      -6.963952
                                                         2.494033      -2.420661
                                                         0.988355      -0.131883
                                                         0.344978       0.057911
                                                         0.099466       0.045088
                          1       7    5dy2             10.077428      -2.715373
                                                         5.847736      -4.020640
                                                         2.494033      -1.397569
                                                         0.988355      -0.076143
                                                         0.344978       0.033435
                                                         0.099466       0.026032
                          1       7    5dyz             10.077428      -4.703164
                                                         5.847736      -6.963952
                                                         2.494033      -2.420661
                                                         0.988355      -0.131883
                                                         0.344978       0.057911
                                                         0.099466       0.045088
                          1       7    5dz2             10.077428      -2.715373
                                                         5.847736      -4.020640
                                                         2.494033      -1.397569
                                                         0.988355      -0.076143
                                                         0.344978       0.033435
                                                         0.099466       0.026032

                          1       8    5fx3             10.077428      -0.467694
                                                         5.847736       0.618100
                                                         2.494033       0.066069
                                                         0.988355       0.262898
                                                         0.344978       0.004720
                                                         0.099466       0.007748
                          1       8    5fx2y            10.077428      -1.045795
                                                         5.847736       1.382114
                                                         2.494033       0.147734
                                                         0.988355       0.587859
                                                         0.344978       0.010555
                                                         0.099466       0.017325
                          1       8    5fx2z            10.077428      -1.045795
                                                         5.847736       1.382114
                                                         2.494033       0.147734
                                                         0.988355       0.587859
                                                         0.344978       0.010555
                                                         0.099466       0.017325
                          1       8    5fxy2            10.077428      -1.045795
                                                         5.847736       1.382114
                                                         2.494033       0.147734
                                                         0.988355       0.587859
                                                         0.344978       0.010555
                                                         0.099466       0.017325
                          1       8    5fxyz            10.077428      -1.811371
                                                         5.847736       2.393892
                                                         2.494033       0.255883
                                                         0.988355       1.018201
                                                         0.344978       0.018282
                                                         0.099466       0.030008
                          1       8    5fxz2            10.077428      -1.045795
                                                         5.847736       1.382114
                                                         2.494033       0.147734
                                                         0.988355       0.587859
                                                         0.344978       0.010555
                                                         0.099466       0.017325
                          1       8    5fy3             10.077428      -0.467694
                                                         5.847736       0.618100
                                                         2.494033       0.066069
                                                         0.988355       0.262898
                                                         0.344978       0.004720
                                                         0.099466       0.007748
                          1       8    5fy2z            10.077428      -1.045795
                                                         5.847736       1.382114
                                                         2.494033       0.147734
                                                         0.988355       0.587859
                                                         0.344978       0.010555
                                                         0.099466       0.017325
                          1       8    5fyz2            10.077428      -1.045795
                                                         5.847736       1.382114
                                                         2.494033       0.147734
                                                         0.988355       0.587859
                                                         0.344978       0.010555
                                                         0.099466       0.017325
                          1       8    5fz3             10.077428      -0.467694
                                                         5.847736       0.618100
                                                         2.494033       0.066069
                                                         0.988355       0.262898
                                                         0.344978       0.004720
                                                         0.099466       0.007748

       Atomic covalent radius [Angstrom]:                                  1.150

       Atomic van der Waals radius [Angstrom]:                             1.630

     GTH Potential information for                                   GTH-PBE-q18

       Description:                       Goedecker-Teter-Hutter pseudopotential
                                           Goedecker et al., PRB 54, 1703 (1996)
                                          Hartwigsen et al., PRB 58, 3641 (1998)
                                                      Krack, TCA 114, 145 (2005)

       Gaussian exponent of the core charge distribution:               4.081633
       Electronic configuration (s p d ...):                           4   6   8

       Parameters of the local part of the GTH pseudopotential:

                          rloc        C1          C2          C3          C4
                        0.350000    2.102166    0.648484

       Parameters of the non-local part of the GTH pseudopotential:

                   l      r(l)      h(i,j,l)

                   0    0.261295    0.622658    9.970227
                                    9.970227  -12.871507
                   1    0.224253  -11.142708   12.429566
                                   12.429566  -14.706861
                   2    0.215348  -12.628146

  2. Atomic kind: Ni_b                                  Number of atoms:      16

     Orbital Basis Set                                        DZVP-MOLOPT-SR-GTH

       Number of orbital shell sets:                                           1
       Number of orbital shells:                                               8
       Number of primitive Cartesian functions:                                6
       Number of Cartesian basis functions:                                   31
       Number of spherical basis functions:                                   26
       Norm type:                                                              2

       Normalised Cartesian orbitals:

                        Set   Shell   Orbital            Exponent    Coefficient

                          1       1    2s               10.077428      -0.684558
                                                         5.847736      -0.844524
                                                         2.494033       1.088856
                                                         0.988355       0.395503
                                                         0.344978       0.010224
                                                         0.099466      -0.003250

                          1       2    3s               10.077428       0.096747
                                                         5.847736       0.162504
                                                         2.494033      -0.297192
                                                         0.988355      -0.319752
                                                         0.344978       0.088318
                                                         0.099466       0.118587

                          1       3    4s               10.077428       0.036437
                                                         5.847736      -0.381480
                                                         2.494033       0.003759
                                                         0.988355      -1.048256
                                                         0.344978       0.855825
                                                         0.099466      -0.176350

                          1       4    3px              10.077428      -3.133913
                                                         5.847736       3.027656
                                                         2.494033       2.353227
                                                         0.988355       0.554184
                                                         0.344978       0.019462
                                                         0.099466      -0.000291
                          1       4    3py              10.077428      -3.133913
                                                         5.847736       3.027656
                                                         2.494033       2.353227
                                                         0.988355       0.554184
                                                         0.344978       0.019462
                                                         0.099466      -0.000291
                          1       4    3pz              10.077428      -3.133913
                                                         5.847736       3.027656
                                                         2.494033       2.353227
                                                         0.988355       0.554184
                                                         0.344978       0.019462
                                                         0.099466      -0.000291

                          1       5    4px              10.077428      -0.112729
                                                         5.847736      -0.114008
                                                         2.494033      -0.347303
                                                         0.988355      -0.110323
                                                         0.344978       0.154096
                                                         0.099466       0.058386
                          1       5    4py              10.077428      -0.112729
                                                         5.847736      -0.114008
                                                         2.494033      -0.347303
                                                         0.988355      -0.110323
                                                         0.344978       0.154096
                                                         0.099466       0.058386
                          1       5    4pz              10.077428      -0.112729
                                                         5.847736      -0.114008
                                                         2.494033      -0.347303
                                                         0.988355      -0.110323
                                                         0.344978       0.154096
                                                         0.099466       0.058386

                          1       6    4dx2             10.077428       8.232726
                                                         5.847736       9.105758
                                                         2.494033       2.849835
                                                         0.988355       0.554319
                                                         0.344978       0.067245
                                                         0.099466       0.001940
                          1       6    4dxy             10.077428      14.259500
                                                         5.847736      15.771636
                                                         2.494033       4.936060
                                                         0.988355       0.960109
                                                         0.344978       0.116472
                                                         0.099466       0.003360
                          1       6    4dxz             10.077428      14.259500
                                                         5.847736      15.771636
                                                         2.494033       4.936060
                                                         0.988355       0.960109
                                                         0.344978       0.116472
                                                         0.099466       0.003360
                          1       6    4dy2             10.077428       8.232726
                                                         5.847736       9.105758
                                                         2.494033       2.849835
                                                         0.988355       0.554319
                                                         0.344978       0.067245
                                                         0.099466       0.001940
                          1       6    4dyz             10.077428      14.259500
                                                         5.847736      15.771636
                                                         2.494033       4.936060
                                                         0.988355       0.960109
                                                         0.344978       0.116472
                                                         0.099466       0.003360
                          1       6    4dz2             10.077428       8.232726
                                                         5.847736       9.105758
                                                         2.494033       2.849835
                                                         0.988355       0.554319
                                                         0.344978       0.067245
                                                         0.099466       0.001940

                          1       7    5dx2             10.077428      -2.715373
                                                         5.847736      -4.020640
                                                         2.494033      -1.397569
                                                         0.988355      -0.076143
                                                         0.344978       0.033435
                                                         0.099466       0.026032
                          1       7    5dxy             10.077428      -4.703164
                                                         5.847736      -6.963952
                                                         2.494033      -2.420661
                                                         0.988355      -0.131883
                                                         0.344978       0.057911
                                                         0.099466       0.045088
                          1       7    5dxz             10.077428      -4.703164
                                                         5.847736      -6.963952
                                                         2.494033      -2.420661
                                                         0.988355      -0.131883
                                                         0.344978       0.057911
                                                         0.099466       0.045088
                          1       7    5dy2             10.077428      -2.715373
                                                         5.847736      -4.020640
                                                         2.494033      -1.397569
                                                         0.988355      -0.076143
                                                         0.344978       0.033435
                                                         0.099466       0.026032
                          1       7    5dyz             10.077428      -4.703164
                                                         5.847736      -6.963952
                                                         2.494033      -2.420661
                                                         0.988355      -0.131883
                                                         0.344978       0.057911
                                                         0.099466       0.045088
                          1       7    5dz2             10.077428      -2.715373
                                                         5.847736      -4.020640
                                                         2.494033      -1.397569
                                                         0.988355      -0.076143
                                                         0.344978       0.033435
                                                         0.099466       0.026032

                          1       8    5fx3             10.077428      -0.467694
                                                         5.847736       0.618100
                                                         2.494033       0.066069
                                                         0.988355       0.262898
                                                         0.344978       0.004720
                                                         0.099466       0.007748
                          1       8    5fx2y            10.077428      -1.045795
                                                         5.847736       1.382114
                                                         2.494033       0.147734
                                                         0.988355       0.587859
                                                         0.344978       0.010555
                                                         0.099466       0.017325
                          1       8    5fx2z            10.077428      -1.045795
                                                         5.847736       1.382114
                                                         2.494033       0.147734
                                                         0.988355       0.587859
                                                         0.344978       0.010555
                                                         0.099466       0.017325
                          1       8    5fxy2            10.077428      -1.045795
                                                         5.847736       1.382114
                                                         2.494033       0.147734
                                                         0.988355       0.587859
                                                         0.344978       0.010555
                                                         0.099466       0.017325
                          1       8    5fxyz            10.077428      -1.811371
                                                         5.847736       2.393892
                                                         2.494033       0.255883
                                                         0.988355       1.018201
                                                         0.344978       0.018282
                                                         0.099466       0.030008
                          1       8    5fxz2            10.077428      -1.045795
                                                         5.847736       1.382114
                                                         2.494033       0.147734
                                                         0.988355       0.587859
                                                         0.344978       0.010555
                                                         0.099466       0.017325
                          1       8    5fy3             10.077428      -0.467694
                                                         5.847736       0.618100
                                                         2.494033       0.066069
                                                         0.988355       0.262898
                                                         0.344978       0.004720
                                                         0.099466       0.007748
                          1       8    5fy2z            10.077428      -1.045795
                                                         5.847736       1.382114
                                                         2.494033       0.147734
                                                         0.988355       0.587859
                                                         0.344978       0.010555
                                                         0.099466       0.017325
                          1       8    5fyz2            10.077428      -1.045795
                                                         5.847736       1.382114
                                                         2.494033       0.147734
                                                         0.988355       0.587859
                                                         0.344978       0.010555
                                                         0.099466       0.017325
                          1       8    5fz3             10.077428      -0.467694
                                                         5.847736       0.618100
                                                         2.494033       0.066069
                                                         0.988355       0.262898
                                                         0.344978       0.004720
                                                         0.099466       0.007748

       Atomic covalent radius [Angstrom]:                                  1.150

       Atomic van der Waals radius [Angstrom]:                             1.630

     GTH Potential information for                                   GTH-PBE-q18

       Description:                       Goedecker-Teter-Hutter pseudopotential
                                           Goedecker et al., PRB 54, 1703 (1996)
                                          Hartwigsen et al., PRB 58, 3641 (1998)
                                                      Krack, TCA 114, 145 (2005)

       Gaussian exponent of the core charge distribution:               4.081633
       Electronic configuration (s p d ...):                           4   6   8

       Parameters of the local part of the GTH pseudopotential:

                          rloc        C1          C2          C3          C4
                        0.350000    2.102166    0.648484

       Parameters of the non-local part of the GTH pseudopotential:

                   l      r(l)      h(i,j,l)

                   0    0.261295    0.622658    9.970227
                                    9.970227  -12.871507
                   1    0.224253  -11.142708   12.429566
                                   12.429566  -14.706861
                   2    0.215348  -12.628146


 MOLECULE KIND INFORMATION


 All atoms are their own molecule, skipping detailed information


 TOTAL NUMBERS AND MAXIMUM NUMBERS

  Total number of            - Atomic kinds:                                   2
                             - Atoms:                                         32
                             - Shell sets:                                    32
                             - Shells:                                       256
                             - Primitive Cartesian functions:                192
                             - Cartesian basis functions:                    992
                             - Spherical basis functions:                    832

  Maximum angular momentum of- Orbital basis functions:                        3
                             - Local part of the GTH pseudopotential:          2
                             - Non-local part of the GTH pseudopotential:      3


 MODULE QUICKSTEP: ATOMIC COORDINATES IN ANGSTROM

   Atom Kind Element         X             Y             Z       Z(eff)     Mass
      1    1 Ni   28      0.876298      0.876298      7.370500  18.0000  58.6934
      2    1 Ni   28      0.876298      4.382298      7.370500  18.0000  58.6934
      3    1 Ni   28      2.629298      2.629298      7.370500  18.0000  58.6934
      4    1 Ni   28      2.629298      6.135298      7.370500  18.0000  58.6934
      5    1 Ni   28      4.382298      0.876298      7.370500  18.0000  58.6934
      6    1 Ni   28      4.382298      4.382298      7.370500  18.0000  58.6934
      7    1 Ni   28      6.135298      2.629298      7.370500  18.0000  58.6934
      8    1 Ni   28      6.135298      6.135298      7.370500  18.0000  58.6934
      9    2 Ni   28      0.876298      2.629298      9.123500  18.0000  58.6934
     10    2 Ni   28      0.876298      6.135298      9.123500  18.0000  58.6934
     11    2 Ni   28      2.629298      0.876298      9.123500  18.0000  58.6934
     12    2 Ni   28      2.629298      4.382298      9.123500  18.0000  58.6934
     13    2 Ni   28      4.382298      2.629298      9.123500  18.0000  58.6934
     14    2 Ni   28      4.382298      6.135298      9.123500  18.0000  58.6934
     15    2 Ni   28      6.135298      0.876298      9.123500  18.0000  58.6934
     16    2 Ni   28      6.135298      4.382298      9.123500  18.0000  58.6934
     17    2 Ni   28      0.876298      0.876298     10.876500  18.0000  58.6934
     18    2 Ni   28      0.876298      4.382298     10.876500  18.0000  58.6934
     19    2 Ni   28      2.629298      2.629298     10.876500  18.0000  58.6934
     20    2 Ni   28      2.629298      6.135298     10.876500  18.0000  58.6934
     21    2 Ni   28      4.382298      0.876298     10.876500  18.0000  58.6934
     22    2 Ni   28      4.382298      4.382298     10.876500  18.0000  58.6934
     23    2 Ni   28      6.135298      2.629298     10.876500  18.0000  58.6934
     24    2 Ni   28      6.135298      6.135298     10.876500  18.0000  58.6934
     25    1 Ni   28      0.876298      2.629298     12.629500  18.0000  58.6934
     26    1 Ni   28      0.876298      6.135298     12.629500  18.0000  58.6934
     27    1 Ni   28      2.629298      0.876298     12.629500  18.0000  58.6934
     28    1 Ni   28      2.629298      4.382298     12.629500  18.0000  58.6934
     29    1 Ni   28      4.382298      2.629298     12.629500  18.0000  58.6934
     30    1 Ni   28      4.382298      6.135298     12.629500  18.0000  58.6934
     31    1 Ni   28      6.135298      0.876298     12.629500  18.0000  58.6934
     32    1 Ni   28      6.135298      4.382298     12.629500  18.0000  58.6934



 SCF PARAMETERS         Density guess:                                    ATOMIC
                        --------------------------------------------------------
                        max_scf:                                             500
                        max_scf_history:                                       0
                        max_diis:                                              4
                        --------------------------------------------------------
                        eps_scf:                                        1.00E-03
                        eps_scf_history:                                0.00E+00
                        eps_diis:                                       1.00E-01
                        eps_eigval:                                     1.00E-05
                        --------------------------------------------------------
                        level_shift [a.u.]:                             0.000000
                        added MOs                                       534  553
                        --------------------------------------------------------
                        Mixing method:                            BROYDEN_MIXING
                                                charge density mixing in g-space
                        --------------------------------------------------------
                        Smear method:                                FERMI_DIRAC
                        Electronic temperature [K]:                       2000.0
                        Electronic temperature [a.u.]:                  6.33E-03
                        Accuracy threshold:                             1.00E-10
                        --------------------------------------------------------
                        No outer SCF

 PW_GRID| Information for grid number                                          1
 PW_GRID| Grid distributed over                                   128 processors
 PW_GRID| Real space group dimensions                                     8   16
 PW_GRID| the grid is blocked:                                               YES
 PW_GRID| Cutoff [a.u.]                                                    300.0
 PW_GRID| spherical cutoff:                                                   NO
 PW_GRID|   Bounds   1            -54      53                Points:         108
 PW_GRID|   Bounds   2            -54      53                Points:         108
 PW_GRID|   Bounds   3           -150     149                Points:         300
 PW_GRID| Volume element (a.u.^3)  0.1896E-02     Volume (a.u.^3)      6635.2971
 PW_GRID| Grid span                                                    FULLSPACE
 PW_GRID|   Distribution                         Average         Max         Min
 PW_GRID|   G-Vectors                            27337.5       28728       25272
 PW_GRID|   G-Rays                                 253.1         266         234
 PW_GRID|   Real Space Points                    27337.5       28728       25272

 PW_GRID| Information for grid number                                          2
 PW_GRID| Number of the reference grid                                         1
 PW_GRID| Grid distributed over                                   128 processors
 PW_GRID| Real space group dimensions                                     8   16
 PW_GRID| the grid is blocked:                                                NO
 PW_GRID| Cutoff [a.u.]                                                    100.0
 PW_GRID| spherical cutoff:                                                   NO
 PW_GRID|   Bounds   1            -30      29                Points:          60
 PW_GRID|   Bounds   2            -30      29                Points:          60
 PW_GRID|   Bounds   3            -90      89                Points:         180
 PW_GRID| Volume element (a.u.^3)  0.1024E-01     Volume (a.u.^3)      6635.2971
 PW_GRID| Grid span                                                    FULLSPACE
 PW_GRID|   Distribution                         Average         Max         Min
 PW_GRID|   G-Vectors                             5062.5       15960           0
 PW_GRID|   G-Rays                                  84.4         266           0
 PW_GRID|   Real Space Points                     5062.5        5760        3780

 PW_GRID| Information for grid number                                          3
 PW_GRID| Number of the reference grid                                         1
 PW_GRID| Grid distributed over                                   128 processors
 PW_GRID| Real space group dimensions                                     8   16
 PW_GRID| the grid is blocked:                                                NO
 PW_GRID| Cutoff [a.u.]                                                     33.3
 PW_GRID| spherical cutoff:                                                   NO
 PW_GRID|   Bounds   1            -18      17                Points:          36
 PW_GRID|   Bounds   2            -18      17                Points:          36
 PW_GRID|   Bounds   3            -50      49                Points:         100
 PW_GRID| Volume element (a.u.^3)  0.5120E-01     Volume (a.u.^3)      6635.2971
 PW_GRID| Grid span                                                    FULLSPACE
 PW_GRID|   Distribution                         Average         Max         Min
 PW_GRID|   G-Vectors                             1012.5        9576           0
 PW_GRID|   G-Rays                                  28.1         266           0
 PW_GRID|   Real Space Points                     1012.5        1500         800

 PW_GRID| Information for grid number                                          4
 PW_GRID| Number of the reference grid                                         1
 PW_GRID| Grid distributed over                                   128 processors
 PW_GRID| Real space group dimensions                                     8   16
 PW_GRID| the grid is blocked:                                                NO
 PW_GRID| Cutoff [a.u.]                                                     11.1
 PW_GRID| spherical cutoff:                                                   NO
 PW_GRID|   Bounds   1            -10       9                Points:          20
 PW_GRID|   Bounds   2            -10       9                Points:          20
 PW_GRID|   Bounds   3            -30      29                Points:          60
 PW_GRID| Volume element (a.u.^3)  0.2765         Volume (a.u.^3)      6635.2971
 PW_GRID| Grid span                                                    FULLSPACE
 PW_GRID|   Distribution                         Average         Max         Min
 PW_GRID|   G-Vectors                              187.5        3800           0
 PW_GRID|   G-Rays                                   9.4         190           0
 PW_GRID|   Real Space Points                      187.5         360         120

 PW_GRID| Information for grid number                                          5
 PW_GRID| Number of the reference grid                                         1
 PW_GRID| Grid distributed over                                   128 processors
 PW_GRID| Real space group dimensions                                     8   16
 PW_GRID| the grid is blocked:                                                NO
 PW_GRID| Cutoff [a.u.]                                                      3.7
 PW_GRID| spherical cutoff:                                                   NO
 PW_GRID|   Bounds   1             -6       5                Points:          12
 PW_GRID|   Bounds   2             -6       5                Points:          12
 PW_GRID|   Bounds   3            -18      17                Points:          36
 PW_GRID| Volume element (a.u.^3)   1.280         Volume (a.u.^3)      6635.2971
 PW_GRID| Grid span                                                    FULLSPACE
 PW_GRID|   Distribution                         Average         Max         Min
 PW_GRID|   G-Vectors                               40.5        1296           0
 PW_GRID|   G-Rays                                   3.4         108           0
 PW_GRID|   Real Space Points                       40.5          72           0

 POISSON| Solver                                                        PERIODIC
 POISSON| Periodicity                                                        XYZ

 RS_GRID| Information for grid number                                          1
 RS_GRID|   Bounds   1            -54      53                Points:         108
 RS_GRID|   Bounds   2            -54      53                Points:         108
 RS_GRID|   Bounds   3           -150     149                Points:         300
 RS_GRID| Real space distribution over                                  8 groups
 RS_GRID| Real space distribution along direction                              2
 RS_GRID| Border size                                                         28
 RS_GRID| Real space distribution over                                 16 groups
 RS_GRID| Real space distribution along direction                              3
 RS_GRID| Border size                                                         28
 RS_GRID|   Distribution                         Average         Max         Min
 RS_GRID|   Planes                                  69.5          70          69
 RS_GRID|   Distribution                         Average         Max         Min
 RS_GRID|   Planes                                  74.8          75          74

 RS_GRID| Information for grid number                                          2
 RS_GRID|   Bounds   1            -30      29                Points:          60
 RS_GRID|   Bounds   2            -30      29                Points:          60
 RS_GRID|   Bounds   3            -90      89                Points:         180
 RS_GRID| Real space fully replicated
 RS_GRID| Group size                                                           1

 RS_GRID| Information for grid number                                          3
 RS_GRID|   Bounds   1            -18      17                Points:          36
 RS_GRID|   Bounds   2            -18      17                Points:          36
 RS_GRID|   Bounds   3            -50      49                Points:         100
 RS_GRID| Real space fully replicated
 RS_GRID| Group size                                                           1

 RS_GRID| Information for grid number                                          4
 RS_GRID|   Bounds   1            -10       9                Points:          20
 RS_GRID|   Bounds   2            -10       9                Points:          20
 RS_GRID|   Bounds   3            -30      29                Points:          60
 RS_GRID| Real space fully replicated
 RS_GRID| Group size                                                           1

 RS_GRID| Information for grid number                                          5
 RS_GRID|   Bounds   1             -6       5                Points:          12
 RS_GRID|   Bounds   2             -6       5                Points:          12
 RS_GRID|   Bounds   3            -18      17                Points:          36
 RS_GRID| Real space fully replicated
 RS_GRID| Group size                                                           1

 Spin 1

 Number of electrons:                                                        297.600
 Number of occupied orbitals:                                                298
 Number of molecular orbitals:                                               832

 Spin 2

 Number of electrons:                                                        278.400
 Number of occupied orbitals:                                                279
 Number of molecular orbitals:                                               832

 Number of orbital functions:                                                832
 Number of independent orbital functions:                                    832

 Extrapolation method: initial_guess

 Atomic guess: The first density matrix is obtained in terms of atomic orbitals
               and electronic configurations assigned to each atomic kind

 Guess for atomic kind: Ni_i

 Electronic structure
    Total number of core electrons                                         10.00
    Total number of valence electrons                                      18.00
    Total number of electrons                                              28.00
    Multiplicity                                                         doublet
    Alpha Electrons
    S   [  1.00  1.00] 1.00  1.00
    P   [  3.00] 3.00
    D      4.35
    Beta Electrons
    S   [  1.00  1.00] 1.00  1.00
    P   [  3.00] 3.00
    D      3.65


 *******************************************************************************
                  Iteration          Convergence                     Energy [au]
 *******************************************************************************
                          1         1.51729                    -167.067424631347
                          2         15.3902                    -156.642654318634
                          3         2.33433                    -168.319355313541
                          4        0.206730                    -168.609905008081
                          5        0.814175E-01                -168.612873080494
                          6        0.173318E-01                -168.613470181066
                          7        0.290432E-02                -168.613543571401
                          8        0.311825E-02                -168.613543401474
                          9        0.179670E-03                -168.613544404477
                         10        0.169386E-02                -168.613544207811
                         11        0.473341E-03                -168.613544360253
                         12        0.165417E-03                -168.613544400419
                         13        0.162622E-03                -168.613544401489
                         14        0.158325E-03                -168.613544403900
                         15        0.177007E-03                -168.613544402509
                         16        0.138916E-03                -168.613544404900
                         17        0.934549E-04                -168.613544406149
                         18        0.119916E-03                -168.613544405789
                         19        0.131607E-03                -168.613544405591
                         20        0.169309E-03                -168.613544404773
                         21        0.551337E-04                -168.613544406656
                         22        0.382664E-04                -168.613544406759
                         23        0.378942E-04                -168.613544406765
                         24        0.381089E-04                -168.613544406765
                         25        0.390835E-04                -168.613544406759
                         26        0.308614E-04                -168.613544406841
                         27        0.205044E-04                -168.613544406892
                         28        0.200942E-04                -168.613544406893
                         29        0.199375E-04                -168.613544406893
                         30        0.200198E-04                -168.613544406894
                         31        0.161325E-04                -168.613544406903
                         32        0.330614E-05                -168.613544406925
                         33        0.238713E-05                -168.613544406926
                         34        0.265439E-05                -168.613544406926
                         35        0.277073E-05                -168.613544406926
                         36        0.335175E-05                -168.613544406926
                         37        0.148809E-05                -168.613544406927
                         38        0.133447E-05                -168.613544406927
                         39        0.918735E-06                -168.613544406927

 Energy components [Hartree]           Total Energy ::         -168.613544406927
                                        Band Energy ::          -26.569761966525
                                     Kinetic Energy ::           97.306723392622
                                   Potential Energy ::         -265.920267799548
                                      Virial (-V/T) ::            2.732804666812
                                        Core Energy ::         -299.567979157577
                                          XC Energy ::          -16.227189041387
                                     Coulomb Energy ::          147.181623792037
                       Total Pseudopotential Energy ::         -396.961043505191
                       Local Pseudopotential Energy ::         -362.648291121960
                    Nonlocal Pseudopotential Energy ::          -34.312752383230
                                        Confinement ::            0.863409549921

 Orbital energies  State     Spin  L     Occupation   Energy[a.u.]    Energy[eV]

                       1    alpha  0          1.000      -4.172666   -113.544030
                       2    alpha  0          1.000      -0.181431     -4.936983
                       1     beta  0          1.000      -4.140640   -112.672541
                       2     beta  0          1.000      -0.176372     -4.799339

                       1    alpha  1          3.000      -2.578739    -70.171064
                       1     beta  1          3.000      -2.547579    -69.323162

                       1    alpha  2          4.350      -0.327039     -8.899191
                       1     beta  2          3.650      -0.300569     -8.178887


 Total Electron Density at R=0:                                         0.030422

 Guess for atomic kind: Ni_b

 Electronic structure
    Total number of core electrons                                         10.00
    Total number of valence electrons                                      18.00
    Total number of electrons                                              28.00
    Multiplicity                                                         doublet
    Alpha Electrons
    S   [  1.00  1.00] 1.00  1.00
    P   [  3.00] 3.00
    D      4.25
    Beta Electrons
    S   [  1.00  1.00] 1.00  1.00
    P   [  3.00] 3.00
    D      3.75


 *******************************************************************************
                  Iteration          Convergence                     Energy [au]
 *******************************************************************************
                          1         1.51687                    -167.065012761055
                          2         14.9817                    -156.620431300845
                          3         2.25575                    -168.317311438693
                          4        0.189210                    -168.607926092750
                          5        0.708658E-01                -168.610773319290
                          6        0.122256E-01                -168.611238205502
                          7        0.598421E-02                -168.611272268995
                          8        0.528277E-02                -168.611272438110
                          9        0.104644E-02                -168.611275321653
                         10        0.260234E-02                -168.611274926630
                         11        0.975322E-03                -168.611275328217
                         12        0.161067E-03                -168.611275447773
                         13        0.147413E-03                -168.611275446839
                         14        0.115114E-03                -168.611275449434
                         15        0.167217E-03                -168.611275445436
                         16        0.255374E-04                -168.611275450531
                         17        0.418369E-04                -168.611275450414
                         18        0.393709E-04                -168.611275450477
                         19        0.239931E-04                -168.611275450542
                         20        0.173885E-04                -168.611275450557
                         21        0.851368E-05                -168.611275450578
                         22        0.849928E-05                -168.611275450580
                         23        0.544937E-05                -168.611275450584
                         24        0.540003E-05                -168.611275450586
                         25        0.613371E-05                -168.611275450584
                         26        0.311593E-06                -168.611275450588

 Energy components [Hartree]           Total Energy ::         -168.611275450588
                                        Band Energy ::          -26.568680144499
                                     Kinetic Energy ::           97.303659243130
                                   Potential Energy ::         -265.914934693718
                                      Virial (-V/T) ::            2.732835915546
                                        Core Energy ::         -299.566189183323
                                          XC Energy ::          -16.224592878785
                                     Coulomb Energy ::          147.179506611520
                       Total Pseudopotential Energy ::         -396.956189041778
                       Local Pseudopotential Energy ::         -362.645043136649
                    Nonlocal Pseudopotential Energy ::          -34.311145905129
                                        Confinement ::            0.863406153250

 Orbital energies  State     Spin  L     Occupation   Energy[a.u.]    Energy[eV]

                       1    alpha  0          1.000      -4.168335   -113.426177
                       2    alpha  0          1.000      -0.180730     -4.917906
                       1     beta  0          1.000      -4.145459   -112.803683
                       2     beta  0          1.000      -0.177117     -4.819606

                       1    alpha  1          3.000      -2.574525    -70.056390
                       1     beta  1          3.000      -2.552268    -69.450746

                       1    alpha  2          4.250      -0.323446     -8.801405
                       1     beta  2          3.750      -0.304537     -8.286881


 Total Electron Density at R=0:                                         0.030429

 Spin 1
 Re-scaling the density matrix to get the right number of electrons for spin 1
                  # Electrons              Trace(P)               Scaling factor
                        297.600             297.600                        1.000

 Spin 2
 Re-scaling the density matrix to get the right number of electrons for spin 2
                  # Electrons              Trace(P)               Scaling factor
                        278.400             278.400                        1.000


 SCF WAVEFUNCTION OPTIMIZATION

  Step     Update method      Time    Convergence         Total energy    Change
  ------------------------------------------------------------------------------
     1 NoMix/Diag. 0.10E+00    1.4     0.87318318     -5426.4441344177 -5.43E+03
     2 Broy./Diag. 0.10E+00    1.5     0.02316900     -5319.2157612679  1.07E+02
[...]
   137 Broy./Diag. 0.10E+00    1.5     0.01582145     -5417.8708805490  9.52E-03
   138 Broy./Diag. 0.10E+00    1.5     0.00358835     -5417.9029447937 -3.21E-02
   139 Broy./Diag. 0.10E+00    1.5     0.02270093     -5417.9163624383 -1.34E-02
   140 Broy./Diag. 0.10E+00    1.5     0.00877121     -5417.9806519912 -6.43E-02
   141 Broy./Diag. 0.10E+00    1.5     0.02253061     -5417.9505872080  3.01E-02
   142 Broy./Diag. 0.10E+00    1.5     0.00641028     -5417.8358215271  1.15E-01
   143 Broy./Diag. 0.10E+00    1.5     0.01294285     -5417.8583249255 -2.25E-02
   144 Broy./Diag. 0.10E+00    1.5     0.00675405     -5417.8767999504 -1.85E-02
   145 Broy./Diag. 0.10E+00    1.5     0.00955624     -5417.8364537787  4.03E-02
   146 Broy./Diag. 0.10E+00    1.5     0.01487868     -5417.8927244782 -5.63E-02
   147 Broy./Diag. 0.10E+00    1.5     0.00930608     -5417.9159699488 -2.32E-02
   148 Broy./Diag. 0.10E+00    1.5     0.01472904     -5417.8578138359  5.82E-02
   149 Broy./Diag. 0.10E+00    1.5     0.02588695     -5417.7652925451  9.25E-02
   150 Broy./Diag. 0.10E+00    1.5     0.01413504     -5417.9490049060 -1.84E-01
   151 Broy./Diag. 0.10E+00    1.5     0.02825218     -5417.9346934768  1.43E-02
   152 Broy./Diag. 0.10E+00    1.5     0.03135875     -5417.7444193431  1.90E-01
   153 Broy./Diag. 0.10E+00    1.5     0.04107388     -5418.0750192734 -3.31E-01
   154 Broy./Diag. 0.10E+00    1.5     0.03246819     -5417.7673214262  3.08E-01
   155 Broy./Diag. 0.10E+00    1.5     0.00672585     -5418.0018409051 -2.35E-01
   156 Broy./Diag. 0.10E+00    1.5     0.04818296     -5418.0317145132 -2.99E-02
   157 Broy./Diag. 0.10E+00    1.5     0.02365932     -5418.3306398279 -2.99E-01
   158 Broy./Diag. 0.10E+00    1.5     0.02711622     -5418.3134073744  1.72E-02
   159 Broy./Diag. 0.10E+00    1.5     0.02984889     -5418.1626112047  1.51E-01
   160 Broy./Diag. 0.10E+00    1.5     0.01797737     -5418.2568208007 -9.42E-02
   161 Broy./Diag. 0.10E+00    1.5     0.01225685     -5418.1742203417  8.26E-02
   162 Broy./Diag. 0.10E+00    1.5     0.01241782     -5418.2621530050 -8.79E-02
   163 Broy./Diag. 0.10E+00    1.5     0.01204039     -5418.3801447458 -1.18E-01
   164 Broy./Diag. 0.10E+00    1.5     0.01613918     -5418.2758862710  1.04E-01
   165 Broy./Diag. 0.10E+00    1.5     0.01848538     -5418.1602446623  1.16E-01
   166 Broy./Diag. 0.10E+00    1.5     0.03253525     -5418.2612829879 -1.01E-01
   167 Broy./Diag. 0.10E+00    1.5     0.01070297     -5418.1312981023  1.30E-01
   168 Broy./Diag. 0.10E+00    1.5     0.02477983     -5418.0931241774  3.82E-02
   169 Broy./Diag. 0.10E+00    1.5     0.01575874     -5418.1134186353 -2.03E-02
   170 Broy./Diag. 0.10E+00    1.5     0.00954078     -5418.1705162898 -5.71E-02
   171 Broy./Diag. 0.10E+00    1.5     0.00805118     -5418.1077125773  6.28E-02
   172 Broy./Diag. 0.10E+00    1.5     0.00657790     -5418.1052275858  2.48E-03
   173 Broy./Diag. 0.10E+00    1.5     0.01803836     -5418.1234249486 -1.82E-02
   174 Broy./Diag. 0.10E+00    1.5     0.01048337     -5418.0380817326  8.53E-02
   175 Broy./Diag. 0.10E+00    1.6     0.04353372     -5417.9762986870  6.18E-02
   176 Broy./Diag. 0.10E+00    1.5     0.02915463     -5418.0035485423 -2.72E-02
   177 Broy./Diag. 0.10E+00    1.5     0.04374250     -5417.7932659693  2.10E-01
   178 Broy./Diag. 0.10E+00    1.5     0.03675406     -5418.1240754137 -3.31E-01
   179 Broy./Diag. 0.10E+00    1.5     0.00828349     -5417.9397436253  1.84E-01
   180 Broy./Diag. 0.10E+00    1.5     0.01418152     -5417.8786598012  6.11E-02
   181 Broy./Diag. 0.10E+00    1.5     0.02777880     -5417.9624363850 -8.38E-02
   182 Broy./Diag. 0.10E+00    1.5     0.05410562     -5417.8963996592  6.60E-02
   183 Broy./Diag. 0.10E+00    1.5     0.01958488     -5417.0334954550  8.63E-01
   184 Broy./Diag. 0.10E+00    1.5     0.01201863     -5417.4294590747 -3.96E-01
   185 Broy./Diag. 0.10E+00    1.5     0.01244321     -5417.2276778630  2.02E-01
   186 Broy./Diag. 0.10E+00    1.5     0.02122782     -5417.0161358539  2.12E-01
   187 Broy./Diag. 0.10E+00    1.5     0.01338803     -5417.1176608021 -1.02E-01
   188 Broy./Diag. 0.10E+00    1.5     0.01300507     -5416.9580873695  1.60E-01
   189 Broy./Diag. 0.10E+00    1.5     0.01617574     -5416.8473584481  1.11E-01
   190 Broy./Diag. 0.10E+00    1.5     0.03306273     -5416.6025146364  2.45E-01
   191 Broy./Diag. 0.10E+00    1.5     0.01311781     -5416.7641134032 -1.62E-01
   192 Broy./Diag. 0.10E+00    1.5     0.01268010     -5416.6367832703  1.27E-01
   193 Broy./Diag. 0.10E+00    1.5     0.01686571     -5417.5117062232 -8.75E-01
   194 Broy./Diag. 0.10E+00    1.5     0.04975867     -5417.9371053543 -4.25E-01
   195 Broy./Diag. 0.10E+00    1.5     0.03694529     -5418.0030873562 -6.60E-02
   196 Broy./Diag. 0.10E+00    1.5     0.01392561     -5417.7605641121  2.43E-01
   197 Broy./Diag. 0.10E+00    1.5     0.04745112     -5417.5760486808  1.85E-01
   198 Broy./Diag. 0.10E+00    1.5     0.02373784     -5418.0079417363 -4.32E-01
   199 Broy./Diag. 0.10E+00    1.5     0.01032983     -5417.9488857266  5.91E-02
   200 Broy./Diag. 0.10E+00    1.5     0.04909758     -5417.6290204800  3.20E-01
   201 Broy./Diag. 0.10E+00    1.5     0.02189317     -5417.5119586340  1.17E-01
   202 Broy./Diag. 0.10E+00    1.5     0.01610277     -5417.5047671214  7.19E-03
   203 Broy./Diag. 0.10E+00    1.5     0.00952886     -5417.7530269355 -2.48E-01
   204 Broy./Diag. 0.10E+00    1.5     0.00957454     -5417.8594117801 -1.06E-01
   205 Broy./Diag. 0.10E+00    1.5     0.02340960     -5417.8353905861  2.40E-02
   206 Broy./Diag. 0.10E+00    1.5     0.03015363     -5417.6157317975  2.20E-01
   207 Broy./Diag. 0.10E+00    1.5     0.01448737     -5418.0255912516 -4.10E-01
   208 Broy./Diag. 0.10E+00    1.5     0.01768639     -5417.9610033655  6.46E-02
   209 Broy./Diag. 0.10E+00    1.5     0.03644994     -5417.9519863122  9.02E-03
   210 Broy./Diag. 0.10E+00    1.5     0.02775241     -5417.8275413585  1.24E-01
   211 Broy./Diag. 0.10E+00    1.5     0.02004399     -5417.5382156918  2.89E-01
   212 Broy./Diag. 0.10E+00    1.5     0.04210430     -5417.5396380269 -1.42E-03
   213 Broy./Diag. 0.10E+00    1.5     0.00943841     -5417.7359047539 -1.96E-01
   214 Broy./Diag. 0.10E+00    1.5     0.01970448     -5417.7476229313 -1.17E-02
   215 Broy./Diag. 0.10E+00    1.5     0.00870084     -5417.6703073298  7.73E-02
   216 Broy./Diag. 0.10E+00    1.5     0.03875905     -5417.6695204231  7.87E-04
   217 Broy./Diag. 0.10E+00    1.5     0.01896398     -5417.6492800246  2.02E-02
   218 Broy./Diag. 0.10E+00    1.5     0.02624277     -5417.5670765634  8.22E-02
   219 Broy./Diag. 0.10E+00    1.5     0.08984610     -5417.5299243522  3.72E-02
   220 Broy./Diag. 0.10E+00    1.5     0.01283214     -5417.5461953099 -1.63E-02
   221 Broy./Diag. 0.10E+00    1.5     0.00989998     -5417.5152336472  3.10E-02
   222 Broy./Diag. 0.10E+00    1.5     0.00866222     -5417.4099047512  1.05E-01
   223 Broy./Diag. 0.10E+00    1.5     0.00618631     -5417.3645999790  4.53E-02
   224 Broy./Diag. 0.10E+00    1.5     0.02409588     -5417.4260497957 -6.14E-02
   225 Broy./Diag. 0.10E+00    1.5     0.05449235     -5416.8352396301  5.91E-01
   226 Broy./Diag. 0.10E+00    1.5     0.07886150     -5417.6525283904 -8.17E-01
   227 Broy./Diag. 0.10E+00    1.5     0.04154150     -5417.3485619656  3.04E-01
   228 Broy./Diag. 0.10E+00    1.5     0.05165525     -5416.8173909218  5.31E-01
   229 Broy./Diag. 0.10E+00    1.5     0.00761401     -5416.8829137760 -6.55E-02
   230 Broy./Diag. 0.10E+00    1.5     0.02614433     -5416.5213845062  3.62E-01
   231 Broy./Diag. 0.10E+00    1.5     0.04448282     -5416.5393847347 -1.80E-02
   232 Broy./Diag. 0.10E+00    1.5     0.06817378     -5416.0328168990  5.07E-01
   233 Broy./Diag. 0.10E+00    1.5     0.01341895     -5415.6123293661  4.20E-01
   234 Broy./Diag. 0.10E+00    1.5     0.02972716     -5415.5242457079  8.81E-02
   235 Broy./Diag. 0.10E+00    1.5     0.04632390     -5416.0098864240 -4.86E-01
   236 Broy./Diag. 0.10E+00    1.5     0.06895240     -5416.8452181875 -8.35E-01
   237 Broy./Diag. 0.10E+00    1.5     0.05943086     -5416.2568026738  5.88E-01
   238 Broy./Diag. 0.10E+00    1.5     0.01147144     -5416.7988647119 -5.42E-01
   239 Broy./Diag. 0.10E+00    1.5     0.04403648     -5416.5918800381  2.07E-01
   240 Broy./Diag. 0.10E+00    1.5     0.08377879     -5417.5937657359 -1.00E+00
   241 Broy./Diag. 0.10E+00    1.5     0.01722284     -5417.8706155065 -2.77E-01
   242 Broy./Diag. 0.10E+00    1.5     0.01362248     -5417.7088414013  1.62E-01
   243 Broy./Diag. 0.10E+00    1.5     0.06262595     -5417.4848608344  2.24E-01
   244 Broy./Diag. 0.10E+00    1.5     0.01234904     -5417.1246983483  3.60E-01
   245 Broy./Diag. 0.10E+00    1.5     0.01738320     -5417.1212664963  3.43E-03
   246 Broy./Diag. 0.10E+00    1.5     0.02504536     -5417.2275420428 -1.06E-01
   247 Broy./Diag. 0.10E+00    1.5     0.01701390     -5417.2590554366 -3.15E-02
   248 Broy./Diag. 0.10E+00    1.5     0.01122000     -5417.0946293151  1.64E-01
   249 Broy./Diag. 0.10E+00    1.5     0.05930333     -5417.3234660818 -2.29E-01
   250 Broy./Diag. 0.10E+00    1.5     0.03168158     -5417.6984125170 -3.75E-01
   251 Broy./Diag. 0.10E+00    1.5     0.02946212     -5417.4701185356  2.28E-01
   252 Broy./Diag. 0.10E+00    1.5     0.00738007     -5417.8927613246 -4.23E-01
   253 Broy./Diag. 0.10E+00    1.5     0.04173775     -5417.8660935275  2.67E-02
   254 Broy./Diag. 0.10E+00    1.5     0.10601794     -5417.5969347650  2.69E-01
   255 Broy./Diag. 0.10E+00    1.5     0.02870882     -5416.7465067195  8.50E-01
   256 Broy./Diag. 0.10E+00    1.5     0.01816142     -5417.3988627223 -6.52E-01
   257 Broy./Diag. 0.10E+00    1.5     0.03822742     -5417.7564741133 -3.58E-01
   258 Broy./Diag. 0.10E+00    1.5     0.11211996     -5416.9330632461  8.23E-01
   259 Broy./Diag. 0.10E+00    1.5     0.03285297     -5418.0422595956 -1.11E+00
   260 Broy./Diag. 0.10E+00    1.5     0.04704409     -5417.7071724108  3.35E-01
   261 Broy./Diag. 0.10E+00    1.5     0.05191852     -5417.8573570944 -1.50E-01
   262 Broy./Diag. 0.10E+00    1.5     0.05231448     -5416.3214051352  1.54E+00
   263 Broy./Diag. 0.10E+00    1.5     0.09128320     -5415.9880755281  3.33E-01
   264 Broy./Diag. 0.10E+00    1.5     0.11251062     -5414.7132062853  1.27E+00
   265 Broy./Diag. 0.10E+00    1.5     0.10158017     -5415.3661105890 -6.53E-01
   266 Broy./Diag. 0.10E+00    1.5     0.01850186     -5416.9245905688 -1.56E+00
   267 Broy./Diag. 0.10E+00    1.5     0.06077207     -5416.8507579744  7.38E-02
   268 Broy./Diag. 0.10E+00    1.5     0.10515742     -5415.7234889659  1.13E+00
   269 Broy./Diag. 0.10E+00    1.5     0.11077404     -5414.6927001934  1.03E+00
   270 Broy./Diag. 0.10E+00    1.5     0.01156296     -5415.2974974161 -6.05E-01
   271 Broy./Diag. 0.10E+00    1.5     0.03029570     -5415.1447063792  1.53E-01
   272 Broy./Diag. 0.10E+00    1.5     0.02790591     -5415.5034352313 -3.59E-01
   273 Broy./Diag. 0.10E+00    1.5     0.04824622     -5416.0489933286 -5.46E-01
   274 Broy./Diag. 0.10E+00    1.5     0.04687504     -5416.6929708436 -6.44E-01
   275 Broy./Diag. 0.10E+00    1.5     0.15415132     -5415.4450429498  1.25E+00
   276 Broy./Diag. 0.10E+00    1.5     0.04341990     -5416.1008054355 -6.56E-01
   277 Broy./Diag. 0.10E+00    1.5     0.06628858     -5416.2497596838 -1.49E-01
   278 Broy./Diag. 0.10E+00    1.5     0.05931945     -5416.0755390411  1.74E-01
   279 Broy./Diag. 0.10E+00    1.5     0.02933329     -5416.6046098979 -5.29E-01
   280 Broy./Diag. 0.10E+00    1.5     0.12299015     -5417.1531592979 -5.49E-01
   281 Broy./Diag. 0.10E+00    1.5     0.03083469     -5417.5525563903 -3.99E-01
   282 Broy./Diag. 0.10E+00    1.5     0.01337121     -5417.3297189829  2.23E-01
   283 Broy./Diag. 0.10E+00    1.5     0.04380091     -5417.3493217350 -1.96E-02
   284 Broy./Diag. 0.10E+00    1.5     0.04264194     -5418.1163248365 -7.67E-01
   285 Broy./Diag. 0.10E+00    1.5     0.03526899     -5417.3175301623  7.99E-01
   286 Broy./Diag. 0.10E+00    1.5     0.01966918     -5417.1644981515  1.53E-01
   287 Broy./Diag. 0.10E+00    1.5     0.15690731     -5417.3043221220 -1.40E-01
   288 Broy./Diag. 0.10E+00    1.5     0.01613438     -5416.5219538723  7.82E-01
   289 Broy./Diag. 0.10E+00    1.5     0.08896200     -5416.3674823920  1.54E-01
   290 Broy./Diag. 0.10E+00    1.5     0.03431340     -5416.5547955862 -1.87E-01
   291 Broy./Diag. 0.10E+00    1.5     0.18213569     -5416.4015587172  1.53E-01
   292 Broy./Diag. 0.10E+00    1.5     0.04810393     -5415.5369008459  8.65E-01
   293 Broy./Diag. 0.10E+00    1.5     0.00851230     -5415.7450965580 -2.08E-01
   294 Broy./Diag. 0.10E+00    1.5     0.01921278     -5415.7926002031 -4.75E-02
   295 Broy./Diag. 0.10E+00    1.5     0.09089225     -5415.8713610146 -7.88E-02
   296 Broy./Diag. 0.10E+00    1.5     0.05892532     -5416.3088608071 -4.37E-01
   297 Broy./Diag. 0.10E+00    1.5     0.04216070     -5416.4368834380 -1.28E-01
   298 Broy./Diag. 0.10E+00    1.5     0.07902077     -5416.6552991917 -2.18E-01
   299 Broy./Diag. 0.10E+00    1.5     0.07559328     -5416.9405360438 -2.85E-01
   300 Broy./Diag. 0.10E+00    1.5     0.07691638     -5416.7696215737  1.71E-01
   301 Broy./Diag. 0.10E+00    1.5     0.04102628     -5416.9920636906 -2.22E-01
   302 Broy./Diag. 0.10E+00    1.5     0.03849999     -5417.1197984342 -1.28E-01
   303 Broy./Diag. 0.10E+00    1.5     0.14432128     -5416.8232349283  2.97E-01
   304 Broy./Diag. 0.10E+00    1.5     0.10885222     -5418.4690444904 -1.65E+00
   305 Broy./Diag. 0.10E+00    1.5     0.08705520     -5416.8092245554  1.66E+00
   306 Broy./Diag. 0.10E+00    1.5     0.24819481     -5414.8127050117  2.00E+00
   307 Broy./Diag. 0.10E+00    1.5     0.05313390     -5417.6302790845 -2.82E+00
   308 Broy./Diag. 0.10E+00    1.5     0.05219010     -5415.8341665750  1.80E+00
   309 Broy./Diag. 0.10E+00    1.5     0.11397765     -5415.4214380149  4.13E-01
   310 Broy./Diag. 0.10E+00    1.5     0.04157631     -5415.2688785548  1.53E-01
   311 Broy./Diag. 0.10E+00    1.5     0.13170101     -5414.8275710258  4.41E-01
   312 Broy./Diag. 0.10E+00    1.5     0.25059411     -5414.8904785924 -6.29E-02
   313 Broy./Diag. 0.10E+00    1.5     0.17481647     -5415.2676020262 -3.77E-01
   314 Broy./Diag. 0.10E+00    1.5     0.04309432     -5416.2644357402 -9.97E-01
   315 Broy./Diag. 0.10E+00    1.5     0.08459009     -5417.2587722044 -9.94E-01
   316 Broy./Diag. 0.10E+00    1.5     0.45409216     -5417.9740533960 -7.15E-01
   317 Broy./Diag. 0.10E+00    1.5     0.08808827     -5417.4877894450  4.86E-01
   318 Broy./Diag. 0.10E+00    1.5     0.16844663     -5417.3793672317  1.08E-01
   319 Broy./Diag. 0.10E+00    1.5     0.26230374     -5417.9284019716 -5.49E-01
   320 Broy./Diag. 0.10E+00    1.5     0.05931771     -5418.2494358790 -3.21E-01
   321 Broy./Diag. 0.10E+00    1.5     0.07897409     -5418.1428792242  1.07E-01
   322 Broy./Diag. 0.10E+00    1.5     0.05339071     -5418.1525633745 -9.68E-03
   323 Broy./Diag. 0.10E+00    1.5     0.27828274     -5418.1785809904 -2.60E-02
   324 Broy./Diag. 0.10E+00    1.5     0.05576220     -5418.3615945814 -1.83E-01
   325 Broy./Diag. 0.10E+00    1.5     0.09241917     -5418.5949332910 -2.33E-01
   326 Broy./Diag. 0.10E+00    1.5     0.17789729     -5418.8324519406 -2.38E-01
   327 Broy./Diag. 0.10E+00    1.5     0.07493725     -5418.6010170133  2.31E-01
   328 Broy./Diag. 0.10E+00    1.5     0.08034374     -5418.6086848972 -7.67E-03
   329 Broy./Diag. 0.10E+00    1.5     0.04120264     -5418.7054956914 -9.68E-02
   330 Broy./Diag. 0.10E+00    1.5     0.09001420     -5418.6659247103  3.96E-02
   331 Broy./Diag. 0.10E+00    1.5     0.14593906     -5418.4779702784  1.88E-01
   332 Broy./Diag. 0.10E+00    1.5     0.06675336     -5418.3409360974  1.37E-01
   333 Broy./Diag. 0.10E+00    1.5     0.09856423     -5418.3524117784 -1.15E-02
   334 Broy./Diag. 0.10E+00    1.5     0.09521891     -5418.4200839909 -6.77E-02
   335 Broy./Diag. 0.10E+00    1.5     0.16557994     -5418.0498498358  3.70E-01
   336 Broy./Diag. 0.10E+00    1.5     0.15144449     -5418.2662710807 -2.16E-01
   337 Broy./Diag. 0.10E+00    1.5     0.02028596     -5417.8945383695  3.72E-01
   338 Broy./Diag. 0.10E+00    1.5     0.02578404     -5417.8467319576  4.78E-02
   339 Broy./Diag. 0.10E+00    1.5     0.08447930     -5417.9932973976 -1.47E-01
   340 Broy./Diag. 0.10E+00    1.5     0.11301461     -5418.6049606916 -6.12E-01
   341 Broy./Diag. 0.10E+00    1.5     0.05231445     -5418.2331455063  3.72E-01
   342 Broy./Diag. 0.10E+00    1.5     0.03688792     -5418.2452928276 -1.21E-02
   343 Broy./Diag. 0.10E+00    1.5     0.05188871     -5418.5277745571 -2.82E-01
   344 Broy./Diag. 0.10E+00    1.5     0.07761058     -5418.2923587391  2.35E-01
   345 Broy./Diag. 0.10E+00    1.5     0.25080045     -5418.1495957351  1.43E-01
   346 Broy./Diag. 0.10E+00    1.5     0.08103721     -5418.0585858278  9.10E-02
   347 Broy./Diag. 0.10E+00    1.5     0.03790771     -5417.6532600638  4.05E-01
   348 Broy./Diag. 0.10E+00    1.5     0.14643102     -5417.8355369113 -1.82E-01
   349 Broy./Diag. 0.10E+00    1.5     0.21897986     -5417.6459626169  1.90E-01
   350 Broy./Diag. 0.10E+00    1.5     0.08656683     -5418.0971287784 -4.51E-01
   351 Broy./Diag. 0.10E+00    1.5     0.05247092     -5417.8214214035  2.76E-01
   352 Broy./Diag. 0.10E+00    1.5     0.01054828     -5417.5401084149  2.81E-01
   353 Broy./Diag. 0.10E+00    1.5     0.03616544     -5417.4624724222  7.76E-02
   354 Broy./Diag. 0.10E+00    1.5     0.19226375     -5417.6614022840 -1.99E-01
   355 Broy./Diag. 0.10E+00    1.5     0.08760052     -5418.3401514488 -6.79E-01
   356 Broy./Diag. 0.10E+00    1.5     0.24514081     -5418.3396937039  4.58E-04
   357 Broy./Diag. 0.10E+00    1.5     0.02109562     -5417.3089811005  1.03E+00
   358 Broy./Diag. 0.10E+00    1.5     0.10737489     -5417.3342705418 -2.53E-02
   359 Broy./Diag. 0.10E+00    1.5     0.04069505     -5416.7565994249  5.78E-01
   360 Broy./Diag. 0.10E+00    1.5     0.05096028     -5416.6526697221  1.04E-01
   361 Broy./Diag. 0.10E+00    1.5     0.09582663     -5416.7734762756 -1.21E-01
   362 Broy./Diag. 0.10E+00    1.5     0.07831863     -5416.2481495336  5.25E-01
   363 Broy./Diag. 0.10E+00    1.5     0.04981672     -5416.5013186859 -2.53E-01
   364 Broy./Diag. 0.10E+00    1.5     0.07800307     -5416.7508200174 -2.50E-01
   365 Broy./Diag. 0.10E+00    1.5     0.26231185     -5416.9124711694 -1.62E-01
   366 Broy./Diag. 0.10E+00    1.5     0.29865375     -5417.1018961979 -1.89E-01
   367 Broy./Diag. 0.10E+00    1.5     0.11518193     -5417.6837247630 -5.82E-01
   368 Broy./Diag. 0.10E+00    1.5     0.30851307     -5418.0376437229 -3.54E-01
   369 Broy./Diag. 0.10E+00    1.5     0.13039080     -5418.1252301784 -8.76E-02
   370 Broy./Diag. 0.10E+00    1.5     0.29521562     -5417.9612930611  1.64E-01
   371 Broy./Diag. 0.10E+00    1.5     0.22904629     -5417.5857228242  3.76E-01
   372 Broy./Diag. 0.10E+00    1.5     0.08711303     -5417.3162039597  2.70E-01
   373 Broy./Diag. 0.10E+00    1.5     0.10945051     -5417.5369237004 -2.21E-01
   374 Broy./Diag. 0.10E+00    1.5     0.13032986     -5417.6913825186 -1.54E-01
   375 Broy./Diag. 0.10E+00    1.5     0.15252836     -5418.5490240313 -8.58E-01
   376 Broy./Diag. 0.10E+00    1.5     0.14220120     -5418.0315991968  5.17E-01
   377 Broy./Diag. 0.10E+00    1.5     0.37169961     -5417.9824671385  4.91E-02
   378 Broy./Diag. 0.10E+00    1.5     0.38694986     -5417.9292689346  5.32E-02
   379 Broy./Diag. 0.10E+00    1.5     0.36004078     -5416.7565102156  1.17E+00
   380 Broy./Diag. 0.10E+00    1.5     0.18056311     -5418.7615607957 -2.01E+00
   381 Broy./Diag. 0.10E+00    1.5     0.17199657     -5417.8425901914  9.19E-01
   382 Broy./Diag. 0.10E+00    1.5     0.03251621     -5418.0260433279 -1.83E-01
