 DBCSR| CPU Multiplication driver                                           XSMM (U)
 DBCSR| Multrec recursion limit                                              512 (U)
 DBCSR| Multiplication stack size                                           1000 (D)
 DBCSR| Maximum elements for images                                    UNLIMITED (U)
 DBCSR| Multiplicative factor virtual images                                   1 (U)
 DBCSR| Use multiplication densification                                       T (D)
 DBCSR| Multiplication size stacks                                             3 (U)
 DBCSR| Use memory pool for CPU allocation                                     F (U)
 DBCSR| Number of 3D layers                                               SINGLE (U)
 DBCSR| Use MPI memory allocation                                              F (U)
 DBCSR| Use RMA algorithm                                                      F (U)
 DBCSR| Use Communication thread                                               T (U)
 DBCSR| Communication thread load                                             87 (D)
 DBCSR| MPI: My process id                                                     0
 DBCSR| MPI: Number of processes                                             128
 DBCSR| OMP: Current number of threads                                         1
 DBCSR| OMP: Max number of threads                                             1
 DBCSR| Split modifier for TAS multiplication algorithm                  1.0E+00 (U)


  **** **** ******  **  PROGRAM STARTED AT               2023-02-15 12:30:24.355
 ***** ** ***  *** **   PROGRAM STARTED ON                             nid006724
 **    ****   ******    PROGRAM STARTED BY                                cahart
 ***** **    ** ** **   PROGRAM PROCESS ID                                 28795
  **** **  *******  **  PROGRAM STARTED IN /mnt/lustre/a2fs-work2/work/e05/e05/c
                                           ahart/postdoc/masters/ni/archer2/slab
                                           /optimise/magnetisation/scf_1e-4_temp
                                           -2000_mos-1000_alpha-0.08_beta-1.5_pe
                                           riodic-xyz/search/0.56_0.6

 CP2K| version string:                 CP2K version 2023.1 (Development Version)
 CP2K| source code revision number:                                  git:964cd58
 CP2K| cp2kflags: omp libint fftw3 libxc elpa parallel scalapack xsmm plumed2 mk
 CP2K|            l
 CP2K| is freely available from                            https://www.cp2k.org/
 CP2K| Program compiled at                          Mon 13 Feb 17:05:14 GMT 2023
 CP2K| Program compiled on                                                  ln01
 CP2K| Program compiled for                                              ARCHER2
 CP2K| Data directory path    /work/e05/e05/cahart/cp2k/cp2k-2023.1/cp2k-2023.1-
 CP2K| Input file name                                                  cp2k.inp

 GLOBAL| Force Environment number                                              1
 GLOBAL| Basis set file name                                        BASIS_MOLOPT
 GLOBAL| Potential file name                                      GTH_POTENTIALS
 GLOBAL| MM Potential file name                                     MM_POTENTIAL
 GLOBAL| Coordinate file name                                      __STD_INPUT__
 GLOBAL| Method name                                                        CP2K
 GLOBAL| Project name                                                    Ni_bulk
 GLOBAL| Run type                                                         ENERGY
 GLOBAL| FFT library                                                       FFTW3
 GLOBAL| Diagonalization library                                            ELPA
 GLOBAL| DGEMM library                                                      BLAS
 GLOBAL| Minimum number of eigenvectors for ELPA usage                        16
 GLOBAL| Orthonormality check for eigenvectors                          DISABLED
 GLOBAL| Matrix multiplication library                                 ScaLAPACK
 GLOBAL| All-to-all communication in single precision                          F
 GLOBAL| FFTs using library dependent lengths                                  F
 GLOBAL| Grid backend                                                       AUTO
 GLOBAL| Global print level                                               MEDIUM
 GLOBAL| MPI I/O enabled                                                       T
 GLOBAL| Total number of message passing processes                           128
 GLOBAL| Number of threads for this process                                    1
 GLOBAL| This output is from process                                           0
 GLOBAL| Stack size for threads created by OpenMP (OMP_STACKSIZE)        default
 GLOBAL| CPU model name                          AMD EPYC 7742 64-Core Processor
 GLOBAL| CPUID                                                              1002

 MEMORY| system memory details [Kb]
 MEMORY|                        rank 0           min           max       average
 MEMORY| MemTotal            263528088     263528088     263528088     263528088
 MEMORY| MemFree             238770648     238770648     238770648     238770648
 MEMORY| Buffers                 32840         32840         32840         32840
 MEMORY| Cached                 694464        694464        694464        694464
 MEMORY| Slab                  1579392       1579392       1579392       1579392
 MEMORY| SReclaimable           104304        104304        104304        104304
 MEMORY| MemLikelyFree       239602256     239602256     239602256     239602256


 *** Fundamental physical constants (SI units) ***

 *** Literature: B. J. Mohr and B. N. Taylor,
 ***             CODATA recommended values of the fundamental physical
 ***             constants: 2006, Web Version 5.1
 ***             http://physics.nist.gov/constants

 Speed of light in vacuum [m/s]                             2.99792458000000E+08
 Magnetic constant or permeability of vacuum [N/A**2]       1.25663706143592E-06
 Electric constant or permittivity of vacuum [F/m]          8.85418781762039E-12
 Planck constant (h) [J*s]                                  6.62606896000000E-34
 Planck constant (h-bar) [J*s]                              1.05457162825177E-34
 Elementary charge [C]                                      1.60217648700000E-19
 Electron mass [kg]                                         9.10938215000000E-31
 Electron g factor [ ]                                     -2.00231930436220E+00
 Proton mass [kg]                                           1.67262163700000E-27
 Fine-structure constant                                    7.29735253760000E-03
 Rydberg constant [1/m]                                     1.09737315685270E+07
 Avogadro constant [1/mol]                                  6.02214179000000E+23
 Boltzmann constant [J/K]                                   1.38065040000000E-23
 Atomic mass unit [kg]                                      1.66053878200000E-27
 Bohr radius [m]                                            5.29177208590000E-11

 *** Conversion factors ***

 [u] -> [a.u.]                                              1.82288848426455E+03
 [Angstrom] -> [Bohr] = [a.u.]                              1.88972613288564E+00
 [a.u.] = [Bohr] -> [Angstrom]                              5.29177208590000E-01
 [a.u.] -> [s]                                              2.41888432650478E-17
 [a.u.] -> [fs]                                             2.41888432650478E-02
 [a.u.] -> [J]                                              4.35974393937059E-18
 [a.u.] -> [N]                                              8.23872205491840E-08
 [a.u.] -> [K]                                              3.15774647902944E+05
 [a.u.] -> [kJ/mol]                                         2.62549961709828E+03
 [a.u.] -> [kcal/mol]                                       6.27509468713739E+02
 [a.u.] -> [Pa]                                             2.94210107994716E+13
 [a.u.] -> [bar]                                            2.94210107994716E+08
 [a.u.] -> [atm]                                            2.90362800883016E+08
 [a.u.] -> [eV]                                             2.72113838565563E+01
 [a.u.] -> [Hz]                                             6.57968392072181E+15
 [a.u.] -> [1/cm] (wave numbers)                            2.19474631370540E+05
 [a.u./Bohr**2] -> [1/cm]                                   5.14048714338585E+03
 

 CELL_TOP| Volume [angstrom^3]:                                       983.249569
 CELL_TOP| Vector a [angstrom     7.012     0.000     0.000   |a| =     7.011596
 CELL_TOP| Vector b [angstrom     0.000     7.012     0.000   |b| =     7.011596
 CELL_TOP| Vector c [angstrom     0.000     0.000    20.000   |c| =    20.000000
 CELL_TOP| Angle (b,c), alpha [degree]:                                90.000000
 CELL_TOP| Angle (a,c), beta  [degree]:                                90.000000
 CELL_TOP| Angle (a,b), gamma [degree]:                                90.000000
 CELL_TOP| Numerically orthorhombic:                                         YES
 CELL_TOP| Periodicity                                                       XYZ

 GENERATE|  Preliminary Number of Bonds generated:                             0
 GENERATE|  Achieved consistency in connectivity generation.

 CELL| Volume [angstrom^3]:                                           983.249569
 CELL| Vector a [angstrom]:       7.012     0.000     0.000   |a| =     7.011596
 CELL| Vector b [angstrom]:       0.000     7.012     0.000   |b| =     7.011596
 CELL| Vector c [angstrom]:       0.000     0.000    20.000   |c| =    20.000000
 CELL| Angle (b,c), alpha [degree]:                                    90.000000
 CELL| Angle (a,c), beta  [degree]:                                    90.000000
 CELL| Angle (a,b), gamma [degree]:                                    90.000000
 CELL| Numerically orthorhombic:                                             YES
 CELL| Periodicity                                                           XYZ

 CELL_REF| Volume [angstrom^3]:                                       983.249569
 CELL_REF| Vector a [angstrom     7.012     0.000     0.000   |a| =     7.011596
 CELL_REF| Vector b [angstrom     0.000     7.012     0.000   |b| =     7.011596
 CELL_REF| Vector c [angstrom     0.000     0.000    20.000   |c| =    20.000000
 CELL_REF| Angle (b,c), alpha [degree]:                                90.000000
 CELL_REF| Angle (a,c), beta  [degree]:                                90.000000
 CELL_REF| Angle (a,b), gamma [degree]:                                90.000000
 CELL_REF| Numerically orthorhombic:                                         YES
 CELL_REF| Periodicity                                                       XYZ

 *** WARNING in cryssym.F:165 :: Symmetry library SPGLIB not available ***


 *******************************************************************************
                                    Kpoints
 *******************************************************************************
 BRILLOUIN| K-point scheme                                        Monkhorst-Pack
 BRILLOUIN| K-Point grid                                             4    4    1
 BRILLOUIN| Accuracy in Symmetry determination                      0.100000E-05
 BRILLOUIN| K-Point point group symmetrization                               OFF
 BRILLOUIN| Wavefunction type                                            COMPLEX
 BRILLOUIN| List of Kpoints [2 Pi/Bohr]                                        8
 BRILLOUIN| Number           Weight            X              Y              Z
 BRILLOUIN|     1           0.12500       -0.37500       -0.37500        0.00000
 BRILLOUIN|     2           0.12500       -0.37500       -0.12500        0.00000
 BRILLOUIN|     3           0.12500       -0.37500        0.12500        0.00000
 BRILLOUIN|     4           0.12500       -0.37500        0.37500        0.00000
 BRILLOUIN|     5           0.12500       -0.12500       -0.37500        0.00000
 BRILLOUIN|     6           0.12500       -0.12500       -0.12500        0.00000
 BRILLOUIN|     7           0.12500       -0.12500        0.12500        0.00000
 BRILLOUIN|     8           0.12500       -0.12500        0.37500        0.00000
 *******************************************************************************

 *******************************************************************************
 *******************************************************************************
 **                                                                           **
 **     #####                         ##              ##                      **
 **    ##   ##            ##          ##              ##                      **
 **   ##     ##                       ##            ######                    **
 **   ##     ##  ##   ##  ##   #####  ##  ##   ####   ##    #####    #####    **
 **   ##     ##  ##   ##  ##  ##      ## ##   ##      ##   ##   ##  ##   ##   **
 **   ##  ## ##  ##   ##  ##  ##      ####     ###    ##   ######   ######    **
 **    ##  ###   ##   ##  ##  ##      ## ##      ##   ##   ##       ##        **
 **     #######   #####   ##   #####  ##  ##  ####    ##    #####   ##        **
 **           ##                                                    ##        **
 **                                                                           **
 **                                                ... make the atoms dance   **
 **                                                                           **
 **            Copyright (C) by CP2K developers group (2000-2023)             **
 **                      J. Chem. Phys. 152, 194103 (2020)                    **
 **                                                                           **
 *******************************************************************************

 *** WARNING in qs_environment.F:1456 :: Number of electrons will be ***
 *** overwritten by NELEC_ALPHA and NELEC_BETA, multiplicity will be ***
 *** ignored.                                                        ***

 Number of electrons should be                                               576
 Sum of NELEC_ALPHA and NELEC_BETA is                                    576.000

 *** WARNING in qs_environment.F:1488 :: NELEC_ALPHA is not an integer, ***
 *** many features will not be supported.                               ***


 *** WARNING in qs_environment.F:1500 :: NELEC_BETA is not an integer, ***
 *** many features will not be supported.                              ***


 *** WARNING in qs_environment.F:1532 :: More ADDED_MOs requested for beta ***
 *** spin than available.                                                  ***


 *** WARNING in qs_environment.F:1548 :: More added MOs requested than     ***
 *** available. The full set of unoccupied MOs will be used. Use           ***
 *** 'ADDED_MOS -1' to always use all available MOs and to get rid of this ***
 *** warning.                                                              ***


 DFT| Spin unrestricted (spin-polarized) Kohn-Sham calculation               UKS
 DFT| Multiplicity                                                             1
 DFT| Number of spin states                                                    2
 DFT| Charge                                                                   0
 DFT| Self-interaction correction (SIC)                                       NO
 DFT| Cutoffs: density                                              1.000000E-10
 DFT|          gradient                                             1.000000E-10
 DFT|          tau                                                  1.000000E-10
 DFT|          cutoff_smoothing_range                               0.000000E+00
 DFT| XC density smoothing                                                  NONE
 DFT| XC derivatives                                                          PW

 FUNCTIONAL| PBE:
 FUNCTIONAL| J.P.Perdew, K.Burke, M.Ernzerhof, Phys. Rev. Letter, vol. 77, n 18,
 FUNCTIONAL|  pp. 3865-3868, (1996){spin polarized}                             

 vdW POTENTIAL|                                                   Pair Potential
 vdW POTENTIAL|          DFT-D3 (Version 3.1)
 vdW POTENTIAL|          Potential Form: S. Grimme et al, JCP 132: 154104 (2010)
 vdW POTENTIAL|          Zero Damping
 vdW POTENTIAL|          Cutoff Radius [Bohr]:                             20.00
 vdW POTENTIAL|          s6 Scaling Factor:                               1.0000
 vdW POTENTIAL|          sr6 Scaling Factor:                              1.2170
 vdW POTENTIAL|          s8 Scaling Factor:                               0.7220
 vdW POTENTIAL|          Cutoff for CN calculation:                   0.1000E-05

 QS| Method:                                                                 GPW
 QS| Density plane wave grid type                        NON-SPHERICAL FULLSPACE
 QS| Number of grid levels:                                                    5
 QS| Density cutoff [a.u.]:                                                300.0
 QS| Multi grid cutoff [a.u.]: 1) grid level                               300.0
 QS|                           2) grid level                               100.0
 QS|                           3) grid level                                33.3
 QS|                           4) grid level                                11.1
 QS|                           5) grid level                                 3.7
 QS| Grid level progression factor:                                          3.0
 QS| Relative density cutoff [a.u.]:                                        30.0
 QS| Interaction thresholds: eps_pgf_orb:                                1.0E-06
 QS|                         eps_filter_matrix:                          0.0E+00
 QS|                         eps_core_charge:                            1.0E-14
 QS|                         eps_rho_gspace:                             1.0E-12
 QS|                         eps_rho_rspace:                             1.0E-12
 QS|                         eps_gvg_rspace:                             1.0E-06
 QS|                         eps_ppl:                                    1.0E-02
 QS|                         eps_ppnl:                                   1.0E-08


 ATOMIC KIND INFORMATION

  1. Atomic kind: Ni_i                                  Number of atoms:      16

     Orbital Basis Set                                        DZVP-MOLOPT-SR-GTH

       Number of orbital shell sets:                                           1
       Number of orbital shells:                                               8
       Number of primitive Cartesian functions:                                6
       Number of Cartesian basis functions:                                   31
       Number of spherical basis functions:                                   26
       Norm type:                                                              2

       Normalised Cartesian orbitals:

                        Set   Shell   Orbital            Exponent    Coefficient

                          1       1    2s               10.077428      -0.684558
                                                         5.847736      -0.844524
                                                         2.494033       1.088856
                                                         0.988355       0.395503
                                                         0.344978       0.010224
                                                         0.099466      -0.003250

                          1       2    3s               10.077428       0.096747
                                                         5.847736       0.162504
                                                         2.494033      -0.297192
                                                         0.988355      -0.319752
                                                         0.344978       0.088318
                                                         0.099466       0.118587

                          1       3    4s               10.077428       0.036437
                                                         5.847736      -0.381480
                                                         2.494033       0.003759
                                                         0.988355      -1.048256
                                                         0.344978       0.855825
                                                         0.099466      -0.176350

                          1       4    3px              10.077428      -3.133913
                                                         5.847736       3.027656
                                                         2.494033       2.353227
                                                         0.988355       0.554184
                                                         0.344978       0.019462
                                                         0.099466      -0.000291
                          1       4    3py              10.077428      -3.133913
                                                         5.847736       3.027656
                                                         2.494033       2.353227
                                                         0.988355       0.554184
                                                         0.344978       0.019462
                                                         0.099466      -0.000291
                          1       4    3pz              10.077428      -3.133913
                                                         5.847736       3.027656
                                                         2.494033       2.353227
                                                         0.988355       0.554184
                                                         0.344978       0.019462
                                                         0.099466      -0.000291

                          1       5    4px              10.077428      -0.112729
                                                         5.847736      -0.114008
                                                         2.494033      -0.347303
                                                         0.988355      -0.110323
                                                         0.344978       0.154096
                                                         0.099466       0.058386
                          1       5    4py              10.077428      -0.112729
                                                         5.847736      -0.114008
                                                         2.494033      -0.347303
                                                         0.988355      -0.110323
                                                         0.344978       0.154096
                                                         0.099466       0.058386
                          1       5    4pz              10.077428      -0.112729
                                                         5.847736      -0.114008
                                                         2.494033      -0.347303
                                                         0.988355      -0.110323
                                                         0.344978       0.154096
                                                         0.099466       0.058386

                          1       6    4dx2             10.077428       8.232726
                                                         5.847736       9.105758
                                                         2.494033       2.849835
                                                         0.988355       0.554319
                                                         0.344978       0.067245
                                                         0.099466       0.001940
                          1       6    4dxy             10.077428      14.259500
                                                         5.847736      15.771636
                                                         2.494033       4.936060
                                                         0.988355       0.960109
                                                         0.344978       0.116472
                                                         0.099466       0.003360
                          1       6    4dxz             10.077428      14.259500
                                                         5.847736      15.771636
                                                         2.494033       4.936060
                                                         0.988355       0.960109
                                                         0.344978       0.116472
                                                         0.099466       0.003360
                          1       6    4dy2             10.077428       8.232726
                                                         5.847736       9.105758
                                                         2.494033       2.849835
                                                         0.988355       0.554319
                                                         0.344978       0.067245
                                                         0.099466       0.001940
                          1       6    4dyz             10.077428      14.259500
                                                         5.847736      15.771636
                                                         2.494033       4.936060
                                                         0.988355       0.960109
                                                         0.344978       0.116472
                                                         0.099466       0.003360
                          1       6    4dz2             10.077428       8.232726
                                                         5.847736       9.105758
                                                         2.494033       2.849835
                                                         0.988355       0.554319
                                                         0.344978       0.067245
                                                         0.099466       0.001940

                          1       7    5dx2             10.077428      -2.715373
                                                         5.847736      -4.020640
                                                         2.494033      -1.397569
                                                         0.988355      -0.076143
                                                         0.344978       0.033435
                                                         0.099466       0.026032
                          1       7    5dxy             10.077428      -4.703164
                                                         5.847736      -6.963952
                                                         2.494033      -2.420661
                                                         0.988355      -0.131883
                                                         0.344978       0.057911
                                                         0.099466       0.045088
                          1       7    5dxz             10.077428      -4.703164
                                                         5.847736      -6.963952
                                                         2.494033      -2.420661
                                                         0.988355      -0.131883
                                                         0.344978       0.057911
                                                         0.099466       0.045088
                          1       7    5dy2             10.077428      -2.715373
                                                         5.847736      -4.020640
                                                         2.494033      -1.397569
                                                         0.988355      -0.076143
                                                         0.344978       0.033435
                                                         0.099466       0.026032
                          1       7    5dyz             10.077428      -4.703164
                                                         5.847736      -6.963952
                                                         2.494033      -2.420661
                                                         0.988355      -0.131883
                                                         0.344978       0.057911
                                                         0.099466       0.045088
                          1       7    5dz2             10.077428      -2.715373
                                                         5.847736      -4.020640
                                                         2.494033      -1.397569
                                                         0.988355      -0.076143
                                                         0.344978       0.033435
                                                         0.099466       0.026032

                          1       8    5fx3             10.077428      -0.467694
                                                         5.847736       0.618100
                                                         2.494033       0.066069
                                                         0.988355       0.262898
                                                         0.344978       0.004720
                                                         0.099466       0.007748
                          1       8    5fx2y            10.077428      -1.045795
                                                         5.847736       1.382114
                                                         2.494033       0.147734
                                                         0.988355       0.587859
                                                         0.344978       0.010555
                                                         0.099466       0.017325
                          1       8    5fx2z            10.077428      -1.045795
                                                         5.847736       1.382114
                                                         2.494033       0.147734
                                                         0.988355       0.587859
                                                         0.344978       0.010555
                                                         0.099466       0.017325
                          1       8    5fxy2            10.077428      -1.045795
                                                         5.847736       1.382114
                                                         2.494033       0.147734
                                                         0.988355       0.587859
                                                         0.344978       0.010555
                                                         0.099466       0.017325
                          1       8    5fxyz            10.077428      -1.811371
                                                         5.847736       2.393892
                                                         2.494033       0.255883
                                                         0.988355       1.018201
                                                         0.344978       0.018282
                                                         0.099466       0.030008
                          1       8    5fxz2            10.077428      -1.045795
                                                         5.847736       1.382114
                                                         2.494033       0.147734
                                                         0.988355       0.587859
                                                         0.344978       0.010555
                                                         0.099466       0.017325
                          1       8    5fy3             10.077428      -0.467694
                                                         5.847736       0.618100
                                                         2.494033       0.066069
                                                         0.988355       0.262898
                                                         0.344978       0.004720
                                                         0.099466       0.007748
                          1       8    5fy2z            10.077428      -1.045795
                                                         5.847736       1.382114
                                                         2.494033       0.147734
                                                         0.988355       0.587859
                                                         0.344978       0.010555
                                                         0.099466       0.017325
                          1       8    5fyz2            10.077428      -1.045795
                                                         5.847736       1.382114
                                                         2.494033       0.147734
                                                         0.988355       0.587859
                                                         0.344978       0.010555
                                                         0.099466       0.017325
                          1       8    5fz3             10.077428      -0.467694
                                                         5.847736       0.618100
                                                         2.494033       0.066069
                                                         0.988355       0.262898
                                                         0.344978       0.004720
                                                         0.099466       0.007748

       Atomic covalent radius [Angstrom]:                                  1.150

       Atomic van der Waals radius [Angstrom]:                             1.630

     GTH Potential information for                                   GTH-PBE-q18

       Description:                       Goedecker-Teter-Hutter pseudopotential
                                           Goedecker et al., PRB 54, 1703 (1996)
                                          Hartwigsen et al., PRB 58, 3641 (1998)
                                                      Krack, TCA 114, 145 (2005)

       Gaussian exponent of the core charge distribution:               4.081633
       Electronic configuration (s p d ...):                           4   6   8

       Parameters of the local part of the GTH pseudopotential:

                          rloc        C1          C2          C3          C4
                        0.350000    2.102166    0.648484

       Parameters of the non-local part of the GTH pseudopotential:

                   l      r(l)      h(i,j,l)

                   0    0.261295    0.622658    9.970227
                                    9.970227  -12.871507
                   1    0.224253  -11.142708   12.429566
                                   12.429566  -14.706861
                   2    0.215348  -12.628146

  2. Atomic kind: Ni_b                                  Number of atoms:      16

     Orbital Basis Set                                        DZVP-MOLOPT-SR-GTH

       Number of orbital shell sets:                                           1
       Number of orbital shells:                                               8
       Number of primitive Cartesian functions:                                6
       Number of Cartesian basis functions:                                   31
       Number of spherical basis functions:                                   26
       Norm type:                                                              2

       Normalised Cartesian orbitals:

                        Set   Shell   Orbital            Exponent    Coefficient

                          1       1    2s               10.077428      -0.684558
                                                         5.847736      -0.844524
                                                         2.494033       1.088856
                                                         0.988355       0.395503
                                                         0.344978       0.010224
                                                         0.099466      -0.003250

                          1       2    3s               10.077428       0.096747
                                                         5.847736       0.162504
                                                         2.494033      -0.297192
                                                         0.988355      -0.319752
                                                         0.344978       0.088318
                                                         0.099466       0.118587

                          1       3    4s               10.077428       0.036437
                                                         5.847736      -0.381480
                                                         2.494033       0.003759
                                                         0.988355      -1.048256
                                                         0.344978       0.855825
                                                         0.099466      -0.176350

                          1       4    3px              10.077428      -3.133913
                                                         5.847736       3.027656
                                                         2.494033       2.353227
                                                         0.988355       0.554184
                                                         0.344978       0.019462
                                                         0.099466      -0.000291
                          1       4    3py              10.077428      -3.133913
                                                         5.847736       3.027656
                                                         2.494033       2.353227
                                                         0.988355       0.554184
                                                         0.344978       0.019462
                                                         0.099466      -0.000291
                          1       4    3pz              10.077428      -3.133913
                                                         5.847736       3.027656
                                                         2.494033       2.353227
                                                         0.988355       0.554184
                                                         0.344978       0.019462
                                                         0.099466      -0.000291

                          1       5    4px              10.077428      -0.112729
                                                         5.847736      -0.114008
                                                         2.494033      -0.347303
                                                         0.988355      -0.110323
                                                         0.344978       0.154096
                                                         0.099466       0.058386
                          1       5    4py              10.077428      -0.112729
                                                         5.847736      -0.114008
                                                         2.494033      -0.347303
                                                         0.988355      -0.110323
                                                         0.344978       0.154096
                                                         0.099466       0.058386
                          1       5    4pz              10.077428      -0.112729
                                                         5.847736      -0.114008
                                                         2.494033      -0.347303
                                                         0.988355      -0.110323
                                                         0.344978       0.154096
                                                         0.099466       0.058386

                          1       6    4dx2             10.077428       8.232726
                                                         5.847736       9.105758
                                                         2.494033       2.849835
                                                         0.988355       0.554319
                                                         0.344978       0.067245
                                                         0.099466       0.001940
                          1       6    4dxy             10.077428      14.259500
                                                         5.847736      15.771636
                                                         2.494033       4.936060
                                                         0.988355       0.960109
                                                         0.344978       0.116472
                                                         0.099466       0.003360
                          1       6    4dxz             10.077428      14.259500
                                                         5.847736      15.771636
                                                         2.494033       4.936060
                                                         0.988355       0.960109
                                                         0.344978       0.116472
                                                         0.099466       0.003360
                          1       6    4dy2             10.077428       8.232726
                                                         5.847736       9.105758
                                                         2.494033       2.849835
                                                         0.988355       0.554319
                                                         0.344978       0.067245
                                                         0.099466       0.001940
                          1       6    4dyz             10.077428      14.259500
                                                         5.847736      15.771636
                                                         2.494033       4.936060
                                                         0.988355       0.960109
                                                         0.344978       0.116472
                                                         0.099466       0.003360
                          1       6    4dz2             10.077428       8.232726
                                                         5.847736       9.105758
                                                         2.494033       2.849835
                                                         0.988355       0.554319
                                                         0.344978       0.067245
                                                         0.099466       0.001940

                          1       7    5dx2             10.077428      -2.715373
                                                         5.847736      -4.020640
                                                         2.494033      -1.397569
                                                         0.988355      -0.076143
                                                         0.344978       0.033435
                                                         0.099466       0.026032
                          1       7    5dxy             10.077428      -4.703164
                                                         5.847736      -6.963952
                                                         2.494033      -2.420661
                                                         0.988355      -0.131883
                                                         0.344978       0.057911
                                                         0.099466       0.045088
                          1       7    5dxz             10.077428      -4.703164
                                                         5.847736      -6.963952
                                                         2.494033      -2.420661
                                                         0.988355      -0.131883
                                                         0.344978       0.057911
                                                         0.099466       0.045088
                          1       7    5dy2             10.077428      -2.715373
                                                         5.847736      -4.020640
                                                         2.494033      -1.397569
                                                         0.988355      -0.076143
                                                         0.344978       0.033435
                                                         0.099466       0.026032
                          1       7    5dyz             10.077428      -4.703164
                                                         5.847736      -6.963952
                                                         2.494033      -2.420661
                                                         0.988355      -0.131883
                                                         0.344978       0.057911
                                                         0.099466       0.045088
                          1       7    5dz2             10.077428      -2.715373
                                                         5.847736      -4.020640
                                                         2.494033      -1.397569
                                                         0.988355      -0.076143
                                                         0.344978       0.033435
                                                         0.099466       0.026032

                          1       8    5fx3             10.077428      -0.467694
                                                         5.847736       0.618100
                                                         2.494033       0.066069
                                                         0.988355       0.262898
                                                         0.344978       0.004720
                                                         0.099466       0.007748
                          1       8    5fx2y            10.077428      -1.045795
                                                         5.847736       1.382114
                                                         2.494033       0.147734
                                                         0.988355       0.587859
                                                         0.344978       0.010555
                                                         0.099466       0.017325
                          1       8    5fx2z            10.077428      -1.045795
                                                         5.847736       1.382114
                                                         2.494033       0.147734
                                                         0.988355       0.587859
                                                         0.344978       0.010555
                                                         0.099466       0.017325
                          1       8    5fxy2            10.077428      -1.045795
                                                         5.847736       1.382114
                                                         2.494033       0.147734
                                                         0.988355       0.587859
                                                         0.344978       0.010555
                                                         0.099466       0.017325
                          1       8    5fxyz            10.077428      -1.811371
                                                         5.847736       2.393892
                                                         2.494033       0.255883
                                                         0.988355       1.018201
                                                         0.344978       0.018282
                                                         0.099466       0.030008
                          1       8    5fxz2            10.077428      -1.045795
                                                         5.847736       1.382114
                                                         2.494033       0.147734
                                                         0.988355       0.587859
                                                         0.344978       0.010555
                                                         0.099466       0.017325
                          1       8    5fy3             10.077428      -0.467694
                                                         5.847736       0.618100
                                                         2.494033       0.066069
                                                         0.988355       0.262898
                                                         0.344978       0.004720
                                                         0.099466       0.007748
                          1       8    5fy2z            10.077428      -1.045795
                                                         5.847736       1.382114
                                                         2.494033       0.147734
                                                         0.988355       0.587859
                                                         0.344978       0.010555
                                                         0.099466       0.017325
                          1       8    5fyz2            10.077428      -1.045795
                                                         5.847736       1.382114
                                                         2.494033       0.147734
                                                         0.988355       0.587859
                                                         0.344978       0.010555
                                                         0.099466       0.017325
                          1       8    5fz3             10.077428      -0.467694
                                                         5.847736       0.618100
                                                         2.494033       0.066069
                                                         0.988355       0.262898
                                                         0.344978       0.004720
                                                         0.099466       0.007748

       Atomic covalent radius [Angstrom]:                                  1.150

       Atomic van der Waals radius [Angstrom]:                             1.630

     GTH Potential information for                                   GTH-PBE-q18

       Description:                       Goedecker-Teter-Hutter pseudopotential
                                           Goedecker et al., PRB 54, 1703 (1996)
                                          Hartwigsen et al., PRB 58, 3641 (1998)
                                                      Krack, TCA 114, 145 (2005)

       Gaussian exponent of the core charge distribution:               4.081633
       Electronic configuration (s p d ...):                           4   6   8

       Parameters of the local part of the GTH pseudopotential:

                          rloc        C1          C2          C3          C4
                        0.350000    2.102166    0.648484

       Parameters of the non-local part of the GTH pseudopotential:

                   l      r(l)      h(i,j,l)

                   0    0.261295    0.622658    9.970227
                                    9.970227  -12.871507
                   1    0.224253  -11.142708   12.429566
                                   12.429566  -14.706861
                   2    0.215348  -12.628146


 MOLECULE KIND INFORMATION


 All atoms are their own molecule, skipping detailed information


 TOTAL NUMBERS AND MAXIMUM NUMBERS

  Total number of            - Atomic kinds:                                   2
                             - Atoms:                                         32
                             - Shell sets:                                    32
                             - Shells:                                       256
                             - Primitive Cartesian functions:                192
                             - Cartesian basis functions:                    992
                             - Spherical basis functions:                    832

  Maximum angular momentum of- Orbital basis functions:                        3
                             - Local part of the GTH pseudopotential:          2
                             - Non-local part of the GTH pseudopotential:      3


 MODULE QUICKSTEP: ATOMIC COORDINATES IN ANGSTROM

   Atom Kind Element         X             Y             Z       Z(eff)     Mass
      1    1 Ni   28      0.876298      0.876298      7.370500  18.0000  58.6934
      2    1 Ni   28      0.876298      4.382298      7.370500  18.0000  58.6934
      3    1 Ni   28      2.629298      2.629298      7.370500  18.0000  58.6934
      4    1 Ni   28      2.629298      6.135298      7.370500  18.0000  58.6934
      5    1 Ni   28      4.382298      0.876298      7.370500  18.0000  58.6934
      6    1 Ni   28      4.382298      4.382298      7.370500  18.0000  58.6934
      7    1 Ni   28      6.135298      2.629298      7.370500  18.0000  58.6934
      8    1 Ni   28      6.135298      6.135298      7.370500  18.0000  58.6934
      9    2 Ni   28      0.876298      2.629298      9.123500  18.0000  58.6934
     10    2 Ni   28      0.876298      6.135298      9.123500  18.0000  58.6934
     11    2 Ni   28      2.629298      0.876298      9.123500  18.0000  58.6934
     12    2 Ni   28      2.629298      4.382298      9.123500  18.0000  58.6934
     13    2 Ni   28      4.382298      2.629298      9.123500  18.0000  58.6934
     14    2 Ni   28      4.382298      6.135298      9.123500  18.0000  58.6934
     15    2 Ni   28      6.135298      0.876298      9.123500  18.0000  58.6934
     16    2 Ni   28      6.135298      4.382298      9.123500  18.0000  58.6934
     17    2 Ni   28      0.876298      0.876298     10.876500  18.0000  58.6934
     18    2 Ni   28      0.876298      4.382298     10.876500  18.0000  58.6934
     19    2 Ni   28      2.629298      2.629298     10.876500  18.0000  58.6934
     20    2 Ni   28      2.629298      6.135298     10.876500  18.0000  58.6934
     21    2 Ni   28      4.382298      0.876298     10.876500  18.0000  58.6934
     22    2 Ni   28      4.382298      4.382298     10.876500  18.0000  58.6934
     23    2 Ni   28      6.135298      2.629298     10.876500  18.0000  58.6934
     24    2 Ni   28      6.135298      6.135298     10.876500  18.0000  58.6934
     25    1 Ni   28      0.876298      2.629298     12.629500  18.0000  58.6934
     26    1 Ni   28      0.876298      6.135298     12.629500  18.0000  58.6934
     27    1 Ni   28      2.629298      0.876298     12.629500  18.0000  58.6934
     28    1 Ni   28      2.629298      4.382298     12.629500  18.0000  58.6934
     29    1 Ni   28      4.382298      2.629298     12.629500  18.0000  58.6934
     30    1 Ni   28      4.382298      6.135298     12.629500  18.0000  58.6934
     31    1 Ni   28      6.135298      0.876298     12.629500  18.0000  58.6934
     32    1 Ni   28      6.135298      4.382298     12.629500  18.0000  58.6934



 SCF PARAMETERS         Density guess:                                    ATOMIC
                        --------------------------------------------------------
                        max_scf:                                             500
                        max_scf_history:                                       0
                        max_diis:                                              4
                        --------------------------------------------------------
                        eps_scf:                                        1.00E-04
                        eps_scf_history:                                0.00E+00
                        eps_diis:                                       1.00E-01
                        eps_eigval:                                     1.00E-05
                        --------------------------------------------------------
                        level_shift [a.u.]:                             0.000000
                        added MOs                                       534  553
                        --------------------------------------------------------
                        Mixing method:                            BROYDEN_MIXING
                                                charge density mixing in g-space
                        --------------------------------------------------------
                        Smear method:                                FERMI_DIRAC
                        Electronic temperature [K]:                       2000.0
                        Electronic temperature [a.u.]:                  6.33E-03
                        Accuracy threshold:                             1.00E-10
                        --------------------------------------------------------
                        No outer SCF

 PW_GRID| Information for grid number                                          1
 PW_GRID| Grid distributed over                                   128 processors
 PW_GRID| Real space group dimensions                                     8   16
 PW_GRID| the grid is blocked:                                               YES
 PW_GRID| Cutoff [a.u.]                                                    300.0
 PW_GRID| spherical cutoff:                                                   NO
 PW_GRID|   Bounds   1            -54      53                Points:         108
 PW_GRID|   Bounds   2            -54      53                Points:         108
 PW_GRID|   Bounds   3           -150     149                Points:         300
 PW_GRID| Volume element (a.u.^3)  0.1896E-02     Volume (a.u.^3)      6635.2971
 PW_GRID| Grid span                                                    FULLSPACE
 PW_GRID|   Distribution                         Average         Max         Min
 PW_GRID|   G-Vectors                            27337.5       28728       25272
 PW_GRID|   G-Rays                                 253.1         266         234
 PW_GRID|   Real Space Points                    27337.5       28728       25272

 PW_GRID| Information for grid number                                          2
 PW_GRID| Number of the reference grid                                         1
 PW_GRID| Grid distributed over                                   128 processors
 PW_GRID| Real space group dimensions                                     8   16
 PW_GRID| the grid is blocked:                                                NO
 PW_GRID| Cutoff [a.u.]                                                    100.0
 PW_GRID| spherical cutoff:                                                   NO
 PW_GRID|   Bounds   1            -30      29                Points:          60
 PW_GRID|   Bounds   2            -30      29                Points:          60
 PW_GRID|   Bounds   3            -90      89                Points:         180
 PW_GRID| Volume element (a.u.^3)  0.1024E-01     Volume (a.u.^3)      6635.2971
 PW_GRID| Grid span                                                    FULLSPACE
 PW_GRID|   Distribution                         Average         Max         Min
 PW_GRID|   G-Vectors                             5062.5       15960           0
 PW_GRID|   G-Rays                                  84.4         266           0
 PW_GRID|   Real Space Points                     5062.5        5760        3780

 PW_GRID| Information for grid number                                          3
 PW_GRID| Number of the reference grid                                         1
 PW_GRID| Grid distributed over                                   128 processors
 PW_GRID| Real space group dimensions                                     8   16
 PW_GRID| the grid is blocked:                                                NO
 PW_GRID| Cutoff [a.u.]                                                     33.3
 PW_GRID| spherical cutoff:                                                   NO
 PW_GRID|   Bounds   1            -18      17                Points:          36
 PW_GRID|   Bounds   2            -18      17                Points:          36
 PW_GRID|   Bounds   3            -50      49                Points:         100
 PW_GRID| Volume element (a.u.^3)  0.5120E-01     Volume (a.u.^3)      6635.2971
 PW_GRID| Grid span                                                    FULLSPACE
 PW_GRID|   Distribution                         Average         Max         Min
 PW_GRID|   G-Vectors                             1012.5        9576           0
 PW_GRID|   G-Rays                                  28.1         266           0
 PW_GRID|   Real Space Points                     1012.5        1500         800

 PW_GRID| Information for grid number                                          4
 PW_GRID| Number of the reference grid                                         1
 PW_GRID| Grid distributed over                                   128 processors
 PW_GRID| Real space group dimensions                                     8   16
 PW_GRID| the grid is blocked:                                                NO
 PW_GRID| Cutoff [a.u.]                                                     11.1
 PW_GRID| spherical cutoff:                                                   NO
 PW_GRID|   Bounds   1            -10       9                Points:          20
 PW_GRID|   Bounds   2            -10       9                Points:          20
 PW_GRID|   Bounds   3            -30      29                Points:          60
 PW_GRID| Volume element (a.u.^3)  0.2765         Volume (a.u.^3)      6635.2971
 PW_GRID| Grid span                                                    FULLSPACE
 PW_GRID|   Distribution                         Average         Max         Min
 PW_GRID|   G-Vectors                              187.5        3800           0
 PW_GRID|   G-Rays                                   9.4         190           0
 PW_GRID|   Real Space Points                      187.5         360         120

 PW_GRID| Information for grid number                                          5
 PW_GRID| Number of the reference grid                                         1
 PW_GRID| Grid distributed over                                   128 processors
 PW_GRID| Real space group dimensions                                     8   16
 PW_GRID| the grid is blocked:                                                NO
 PW_GRID| Cutoff [a.u.]                                                      3.7
 PW_GRID| spherical cutoff:                                                   NO
 PW_GRID|   Bounds   1             -6       5                Points:          12
 PW_GRID|   Bounds   2             -6       5                Points:          12
 PW_GRID|   Bounds   3            -18      17                Points:          36
 PW_GRID| Volume element (a.u.^3)   1.280         Volume (a.u.^3)      6635.2971
 PW_GRID| Grid span                                                    FULLSPACE
 PW_GRID|   Distribution                         Average         Max         Min
 PW_GRID|   G-Vectors                               40.5        1296           0
 PW_GRID|   G-Rays                                   3.4         108           0
 PW_GRID|   Real Space Points                       40.5          72           0

 POISSON| Solver                                                        PERIODIC
 POISSON| Periodicity                                                        XYZ

 RS_GRID| Information for grid number                                          1
 RS_GRID|   Bounds   1            -54      53                Points:         108
 RS_GRID|   Bounds   2            -54      53                Points:         108
 RS_GRID|   Bounds   3           -150     149                Points:         300
 RS_GRID| Real space distribution over                                  8 groups
 RS_GRID| Real space distribution along direction                              2
 RS_GRID| Border size                                                         28
 RS_GRID| Real space distribution over                                 16 groups
 RS_GRID| Real space distribution along direction                              3
 RS_GRID| Border size                                                         28
 RS_GRID|   Distribution                         Average         Max         Min
 RS_GRID|   Planes                                  69.5          70          69
 RS_GRID|   Distribution                         Average         Max         Min
 RS_GRID|   Planes                                  74.8          75          74

 RS_GRID| Information for grid number                                          2
 RS_GRID|   Bounds   1            -30      29                Points:          60
 RS_GRID|   Bounds   2            -30      29                Points:          60
 RS_GRID|   Bounds   3            -90      89                Points:         180
 RS_GRID| Real space fully replicated
 RS_GRID| Group size                                                           1

 RS_GRID| Information for grid number                                          3
 RS_GRID|   Bounds   1            -18      17                Points:          36
 RS_GRID|   Bounds   2            -18      17                Points:          36
 RS_GRID|   Bounds   3            -50      49                Points:         100
 RS_GRID| Real space fully replicated
 RS_GRID| Group size                                                           1

 RS_GRID| Information for grid number                                          4
 RS_GRID|   Bounds   1            -10       9                Points:          20
 RS_GRID|   Bounds   2            -10       9                Points:          20
 RS_GRID|   Bounds   3            -30      29                Points:          60
 RS_GRID| Real space fully replicated
 RS_GRID| Group size                                                           1

 RS_GRID| Information for grid number                                          5
 RS_GRID|   Bounds   1             -6       5                Points:          12
 RS_GRID|   Bounds   2             -6       5                Points:          12
 RS_GRID|   Bounds   3            -18      17                Points:          36
 RS_GRID| Real space fully replicated
 RS_GRID| Group size                                                           1

 Spin 1

 Number of electrons:                                                        297.280
 Number of occupied orbitals:                                                298
 Number of molecular orbitals:                                               832

 Spin 2

 Number of electrons:                                                        278.720
 Number of occupied orbitals:                                                279
 Number of molecular orbitals:                                               832

 Number of orbital functions:                                                832
 Number of independent orbital functions:                                    832

 Extrapolation method: initial_guess

 Atomic guess: The first density matrix is obtained in terms of atomic orbitals
               and electronic configurations assigned to each atomic kind

 Guess for atomic kind: Ni_i

 Electronic structure
    Total number of core electrons                                         10.00
    Total number of valence electrons                                      18.00
    Total number of electrons                                              28.00
    Multiplicity                                                         doublet
    Alpha Electrons
    S   [  1.00  1.00] 1.00  1.00
    P   [  3.00] 3.00
    D      4.30
    Beta Electrons
    S   [  1.00  1.00] 1.00  1.00
    P   [  3.00] 3.00
    D      3.70


 *******************************************************************************
                  Iteration          Convergence                     Energy [au]
 *******************************************************************************
                          1         1.51708                    -167.066118163909
                          2         15.1863                    -156.630620063797
                          3         2.29518                    -168.318250074867
                          4        0.198051                    -168.608832938310
                          5        0.762142E-01                -168.611735578094
                          6        0.143308E-01                -168.612261389358
                          7        0.453828E-02                -168.612313512258
                          8        0.436836E-02                -168.612313369107
                          9        0.696306E-03                -168.612315351147
                         10        0.226261E-02                -168.612315025774
                         11        0.995757E-03                -168.612315268998
                         12        0.170432E-03                -168.612315393602
                         13        0.195344E-03                -168.612315392852
                         14        0.147467E-03                -168.612315396817
                         15        0.185080E-03                -168.612315392680
                         16        0.969041E-04                -168.612315398729
                         17        0.991109E-04                -168.612315398505
                         18        0.433236E-04                -168.612315399326
                         19        0.269198E-04                -168.612315399408
                         20        0.109432E-04                -168.612315399455
                         21        0.443439E-05                -168.612315399480
                         22        0.816741E-05                -168.612315399471
                         23        0.470984E-05                -168.612315399481
                         24        0.245833E-05                -168.612315399483
                         25        0.100766E-05                -168.612315399484
                         26        0.417991E-06                -168.612315399483

 Energy components [Hartree]           Total Energy ::         -168.612315399483
                                        Band Energy ::          -26.569179124340
                                     Kinetic Energy ::           97.305065650248
                                   Potential Energy ::         -265.917381049731
                                      Virial (-V/T) ::            2.732821557364
                                        Core Energy ::         -299.567011526383
                                          XC Energy ::          -16.225783039068
                                     Coulomb Energy ::          147.180479165968
                       Total Pseudopotential Energy ::         -396.958417944166
                       Local Pseudopotential Energy ::         -362.646534962999
                    Nonlocal Pseudopotential Energy ::          -34.311882981167
                                        Confinement ::            0.863407675347

 Orbital energies  State     Spin  L     Occupation   Energy[a.u.]    Energy[eV]

                       1    alpha  0          1.000      -4.170511   -113.485387
                       2    alpha  0          1.000      -0.181081     -4.927469
                       1     beta  0          1.000      -4.143060   -112.738394
                       2     beta  0          1.000      -0.176746     -4.809500

                       1    alpha  1          3.000      -2.576642    -70.114003
                       1     beta  1          3.000      -2.549934    -69.387228

                       1    alpha  2          4.300      -0.325251     -8.850518
                       1     beta  2          3.700      -0.302561     -8.233099


 Total Electron Density at R=0:                                         0.030426

 Guess for atomic kind: Ni_b

 Electronic structure
    Total number of core electrons                                         10.00
    Total number of valence electrons                                      18.00
    Total number of electrons                                              28.00
    Multiplicity                                                         doublet
    Alpha Electrons
    S   [  1.00  1.00] 1.00  1.00
    P   [  3.00] 3.00
    D      4.28
    Beta Electrons
    S   [  1.00  1.00] 1.00  1.00
    P   [  3.00] 3.00
    D      3.72


 *******************************************************************************
                  Iteration          Convergence                     Energy [au]
 *******************************************************************************
                          1         1.51699                    -167.065651877115
                          2         15.1045                    -156.626322921630
                          3         2.27944                    -168.317854526557
                          4        0.194533                    -168.608450382399
                          5        0.740918E-01                -168.611329652896
                          6        0.133212E-01                -168.611829832019
                          7        0.513653E-02                -168.611874349965
                          8        0.473269E-02                -168.611874288283
                          9        0.866609E-03                -168.611876652167
                         10        0.242532E-02                -168.611876292514
                         11        0.101735E-02                -168.611876599029
                         12        0.167367E-03                -168.611876727840
                         13        0.178299E-03                -168.611876726840
                         14        0.135200E-03                -168.611876730376
                         15        0.179952E-03                -168.611876725998
                         16        0.578684E-04                -168.611876731992
                         17        0.676063E-04                -168.611876731974
                         18        0.414628E-04                -168.611876732186
                         19        0.252531E-04                -168.611876732256
                         20        0.965416E-05                -168.611876732297
                         21        0.631659E-05                -168.611876732304
                         22        0.629879E-05                -168.611876732304
                         23        0.424128E-05                -168.611876732307
                         24        0.350965E-05                -168.611876732310
                         25        0.202349E-05                -168.611876732310
                         26        0.598627E-06                -168.611876732310

 Energy components [Hartree]           Total Energy ::         -168.611876732310
                                        Band Energy ::          -26.568969923845
                                     Kinetic Energy ::           97.304473569695
                                   Potential Energy ::         -265.916350302006
                                      Virial (-V/T) ::            2.732827593086
                                        Core Energy ::         -299.566665804680
                                          XC Energy ::          -16.225281140958
                                     Coulomb Energy ::          147.180070213328
                       Total Pseudopotential Energy ::         -396.957480075415
                       Local Pseudopotential Energy ::         -362.645907533630
                    Nonlocal Pseudopotential Energy ::          -34.311572541785
                                        Confinement ::            0.863407010398

 Orbital energies  State     Spin  L     Occupation   Energy[a.u.]    Energy[eV]

                       1    alpha  0          1.000      -4.169644   -113.461771
                       2    alpha  0          1.000      -0.180941     -4.923650
                       1     beta  0          1.000      -4.144022   -112.764578
                       2     beta  0          1.000      -0.176895     -4.813549

                       1    alpha  1          3.000      -2.575798    -70.091024
                       1     beta  1          3.000      -2.550870    -69.412702

                       1    alpha  2          4.280      -0.324531     -8.830926
                       1     beta  2          3.720      -0.303353     -8.254664


 Total Electron Density at R=0:                                         0.030427

 Spin 1
 Re-scaling the density matrix to get the right number of electrons for spin 1
                  # Electrons              Trace(P)               Scaling factor
                        297.280             297.280                        1.000

 Spin 2
 Re-scaling the density matrix to get the right number of electrons for spin 2
                  # Electrons              Trace(P)               Scaling factor
                        278.720             278.720                        1.000


 SCF WAVEFUNCTION OPTIMIZATION

  Step     Update method      Time    Convergence         Total energy    Change
  ------------------------------------------------------------------------------
     1 NoMix/Diag. 0.80E-01    1.5     0.87368141     -5426.4340398124 -5.43E+03
     2 Broy./Diag. 0.80E-01    1.5     0.01535840     -5316.2474421917  1.10E+02
     3 Broy./Diag. 0.80E-01    1.5     0.05344385     -5352.8995865665 -3.67E+01
     4 Broy./Diag. 0.80E-01    1.6     0.00293427     -5417.5873936261 -6.47E+01
     5 Broy./Diag. 0.80E-01    1.5     0.02323061     -5413.3469644729  4.24E+00
     6 Broy./Diag. 0.80E-01    1.5     0.00178749     -5418.3969012545 -5.05E+00
     7 Broy./Diag. 0.80E-01    1.5     0.00990675     -5416.2287807074  2.17E+00
     8 Broy./Diag. 0.80E-01    1.5     0.00346860     -5417.7800831776 -1.55E+00
     9 Broy./Diag. 0.80E-01    1.5     0.00159404     -5417.1519897431  6.28E-01
    10 Broy./Diag. 0.80E-01    1.5     0.00747320     -5417.1618579376 -9.87E-03
    11 Broy./Diag. 0.80E-01    1.5     0.00846525     -5416.9027837533  2.59E-01
    12 Broy./Diag. 0.80E-01    1.5     0.01361763     -5417.3210814057 -4.18E-01
    13 Broy./Diag. 0.80E-01    1.5     0.00846467     -5417.3859302418 -6.48E-02
    14 Broy./Diag. 0.80E-01    1.5     0.01179663     -5417.4487087923 -6.28E-02
    15 Broy./Diag. 0.80E-01    1.5     0.00381047     -5417.6802857066 -2.32E-01
[...]
   132 Broy./Diag. 0.80E-01    1.5     0.00113220     -5417.8914242964 -6.94E-02
   133 Broy./Diag. 0.80E-01    1.5     0.00428711     -5417.8725555159  1.89E-02
   134 Broy./Diag. 0.80E-01    1.5     0.00663596     -5417.7371262203  1.35E-01
   135 Broy./Diag. 0.80E-01    1.5     0.01285375     -5417.7983141098 -6.12E-02
   136 Broy./Diag. 0.80E-01    1.5     0.00153271     -5417.6619619538  1.36E-01
   137 Broy./Diag. 0.80E-01    1.5     0.00778409     -5417.6413433204  2.06E-02
   138 Broy./Diag. 0.80E-01    1.5     0.00525171     -5417.6966670619 -5.53E-02
   139 Broy./Diag. 0.80E-01    1.5     0.00735333     -5417.7109324550 -1.43E-02
   140 Broy./Diag. 0.80E-01    1.5     0.00396750     -5417.7061775225  4.75E-03
   141 Broy./Diag. 0.80E-01    1.5     0.01052429     -5417.7269786465 -2.08E-02
   142 Broy./Diag. 0.80E-01    1.5     0.00904913     -5417.7814683546 -5.45E-02
   143 Broy./Diag. 0.80E-01    1.5     0.00376623     -5417.7496303237  3.18E-02
   144 Broy./Diag. 0.80E-01    1.5     0.01336608     -5417.7512188443 -1.59E-03
   145 Broy./Diag. 0.80E-01    1.5     0.00611334     -5417.7069485217  4.43E-02
   146 Broy./Diag. 0.80E-01    1.5     0.00421367     -5417.7112824734 -4.33E-03
   147 Broy./Diag. 0.80E-01    1.5     0.00224184     -5417.7005594921  1.07E-02
   148 Broy./Diag. 0.80E-01    1.5     0.01016681     -5417.7051913947 -4.63E-03
   149 Broy./Diag. 0.80E-01    1.5     0.02381133     -5417.7005244245  4.67E-03
   150 Broy./Diag. 0.80E-01    1.5     0.00257441     -5417.6787175779  2.18E-02
   151 Broy./Diag. 0.80E-01    1.5     0.00457113     -5417.6756813613  3.04E-03
   152 Broy./Diag. 0.80E-01    1.5     0.00493372     -5417.6595191555  1.62E-02
   153 Broy./Diag. 0.80E-01    1.5     0.00322951     -5417.6647418900 -5.22E-03
   154 Broy./Diag. 0.80E-01    1.5     0.00530713     -5417.6419944929  2.27E-02
   155 Broy./Diag. 0.80E-01    1.5     0.00713658     -5417.7069519998 -6.50E-02
   156 Broy./Diag. 0.80E-01    1.5     0.01058238     -5417.7606649169 -5.37E-02
   157 Broy./Diag. 0.80E-01    1.5     0.00175134     -5417.7672135682 -6.55E-03
   158 Broy./Diag. 0.80E-01    1.5     0.00267967     -5417.7541870733  1.30E-02
   159 Broy./Diag. 0.80E-01    1.5     0.00822808     -5417.7528160877  1.37E-03
   160 Broy./Diag. 0.80E-01    1.5     0.00597127     -5417.7769210797 -2.41E-02
   161 Broy./Diag. 0.80E-01    1.5     0.00357749     -5417.7838046630 -6.88E-03
   162 Broy./Diag. 0.80E-01    1.5     0.00109459     -5417.7509062092  3.29E-02
   163 Broy./Diag. 0.80E-01    1.5     0.00411383     -5417.7296235117  2.13E-02
   164 Broy./Diag. 0.80E-01    1.5     0.00483645     -5417.7303224686 -6.99E-04
   165 Broy./Diag. 0.80E-01    1.5     0.00148238     -5417.7415854512 -1.13E-02
   166 Broy./Diag. 0.80E-01    1.5     0.00352220     -5417.7170358341  2.45E-02
   167 Broy./Diag. 0.80E-01    1.5     0.00716507     -5417.7109427895  6.09E-03
   168 Broy./Diag. 0.80E-01    1.5     0.00109675     -5417.6773226649  3.36E-02
   169 Broy./Diag. 0.80E-01    1.5     0.00414279     -5417.6820264067 -4.70E-03
   170 Broy./Diag. 0.80E-01    1.5     0.00075597     -5417.6459930839  3.60E-02
   171 Broy./Diag. 0.80E-01    1.5     0.00088687     -5417.6324535661  1.35E-02
   172 Broy./Diag. 0.80E-01    1.5     0.00194844     -5417.6453072977 -1.29E-02
   173 Broy./Diag. 0.80E-01    1.5     0.00458960     -5417.6808041335 -3.55E-02
   174 Broy./Diag. 0.80E-01    1.5     0.00054409     -5417.7386376098 -5.78E-02
   175 Broy./Diag. 0.80E-01    1.5     0.00242628     -5417.7678865961 -2.92E-02
   176 Broy./Diag. 0.80E-01    1.5     0.00155382     -5417.7677382604  1.48E-04
   177 Broy./Diag. 0.80E-01    1.5     0.00085908     -5417.7918261325 -2.41E-02
   178 Broy./Diag. 0.80E-01    1.5     0.00286202     -5417.7579197047  3.39E-02
   179 Broy./Diag. 0.80E-01    1.5     0.00144428     -5417.7585432929 -6.24E-04
   180 Broy./Diag. 0.80E-01    1.5     0.00278947     -5417.7709522048 -1.24E-02
   181 Broy./Diag. 0.80E-01    1.5     0.00107941     -5417.7771737724 -6.22E-03
   182 Broy./Diag. 0.80E-01    1.5     0.00404744     -5417.7619151904  1.53E-02
   183 Broy./Diag. 0.80E-01    1.5     0.01026079     -5417.7823553729 -2.04E-02
   184 Broy./Diag. 0.80E-01    1.5     0.00306966     -5417.7324655823  4.99E-02
   185 Broy./Diag. 0.80E-01    1.5     0.00739673     -5417.7171128763  1.54E-02
   186 Broy./Diag. 0.80E-01    1.5     0.00758617     -5417.7381862194 -2.11E-02
   187 Broy./Diag. 0.80E-01    1.5     0.00579447     -5417.8182726166 -8.01E-02
   188 Broy./Diag. 0.80E-01    1.5     0.01990883     -5417.8223501639 -4.08E-03
   189 Broy./Diag. 0.80E-01    1.5     0.03026507     -5417.8919377733 -6.96E-02
   190 Broy./Diag. 0.80E-01    1.5     0.01714333     -5417.8267173562  6.52E-02
   191 Broy./Diag. 0.80E-01    1.5     0.00443558     -5417.7609501921  6.58E-02
   192 Broy./Diag. 0.80E-01    1.5     0.03545731     -5417.7918877122 -3.09E-02
   193 Broy./Diag. 0.80E-01    1.5     0.04419475     -5417.6698228556  1.22E-01
   194 Broy./Diag. 0.80E-01    1.5     0.00965393     -5417.7799862092 -1.10E-01
   195 Broy./Diag. 0.80E-01    1.5     0.00598413     -5417.7434001691  3.66E-02
   196 Broy./Diag. 0.80E-01    1.5     0.01799562     -5417.7691737383 -2.58E-02
   197 Broy./Diag. 0.80E-01    1.5     0.00997152     -5417.7629737929  6.20E-03
   198 Broy./Diag. 0.80E-01    1.5     0.03346454     -5417.7533439861  9.63E-03
   199 Broy./Diag. 0.80E-01    1.5     0.00374225     -5417.7690248707 -1.57E-02
   200 Broy./Diag. 0.80E-01    1.5     0.01624735     -5417.6604609480  1.09E-01
   201 Broy./Diag. 0.80E-01    1.5     0.01433093     -5417.7665314428 -1.06E-01
   202 Broy./Diag. 0.80E-01    1.5     0.00681613     -5417.7659691756  5.62E-04
   203 Broy./Diag. 0.80E-01    1.5     0.01488624     -5417.9779549818 -2.12E-01
   204 Broy./Diag. 0.80E-01    1.5     0.03900211     -5417.7696966663  2.08E-01
   205 Broy./Diag. 0.80E-01    1.5     0.00430371     -5417.8508108956 -8.11E-02
   206 Broy./Diag. 0.80E-01    1.5     0.01653910     -5417.8339131537  1.69E-02
   207 Broy./Diag. 0.80E-01    1.5     0.04083643     -5417.8406578290 -6.74E-03
   208 Broy./Diag. 0.80E-01    1.5     0.01233455     -5417.8848050749 -4.41E-02
   209 Broy./Diag. 0.80E-01    1.5     0.01753806     -5417.8628843929  2.19E-02
   210 Broy./Diag. 0.80E-01    1.5     0.00873911     -5417.6866696950  1.76E-01
   211 Broy./Diag. 0.80E-01    1.5     0.01618601     -5417.8125752215 -1.26E-01
   212 Broy./Diag. 0.80E-01    1.5     0.00628899     -5417.8412028030 -2.86E-02
   213 Broy./Diag. 0.80E-01    1.5     0.02971935     -5417.4846097167  3.57E-01
   214 Broy./Diag. 0.80E-01    1.5     0.03716558     -5417.8646240296 -3.80E-01
   215 Broy./Diag. 0.80E-01    1.5     0.00918204     -5417.6799007720  1.85E-01
   216 Broy./Diag. 0.80E-01    1.5     0.01623351     -5417.6326792657  4.72E-02
   217 Broy./Diag. 0.80E-01    1.5     0.05204234     -5417.4373907083  1.95E-01
   218 Broy./Diag. 0.80E-01    1.5     0.00314548     -5417.8424257161 -4.05E-01
   219 Broy./Diag. 0.80E-01    1.5     0.03383005     -5417.8542891067 -1.19E-02
   220 Broy./Diag. 0.80E-01    1.5     0.01074145     -5417.9368630960 -8.26E-02
   221 Broy./Diag. 0.80E-01    1.5     0.03399044     -5417.7889909907  1.48E-01
   222 Broy./Diag. 0.80E-01    1.5     0.01426468     -5417.7105405603  7.85E-02
   223 Broy./Diag. 0.80E-01    1.5     0.02821231     -5417.8697228423 -1.59E-01
   224 Broy./Diag. 0.80E-01    1.5     0.04559416     -5417.6445486620  2.25E-01
   225 Broy./Diag. 0.80E-01    1.5     0.01139746     -5417.5829531373  6.16E-02
   226 Broy./Diag. 0.80E-01    1.5     0.00251193     -5417.6243269580 -4.14E-02
   227 Broy./Diag. 0.80E-01    1.5     0.00597238     -5417.6612217298 -3.69E-02
   228 Broy./Diag. 0.80E-01    1.5     0.00105310     -5417.5883422685  7.29E-02
   229 Broy./Diag. 0.80E-01    1.5     0.00628116     -5417.5929738604 -4.63E-03
   230 Broy./Diag. 0.80E-01    1.5     0.00899369     -5417.4632326959  1.30E-01
   231 Broy./Diag. 0.80E-01    1.5     0.03882661     -5417.2712148790  1.92E-01
   232 Broy./Diag. 0.80E-01    1.5     0.02682516     -5417.5677931844 -2.97E-01
   233 Broy./Diag. 0.80E-01    1.5     0.01807741     -5417.1142004859  4.54E-01
   234 Broy./Diag. 0.80E-01    1.5     0.00785873     -5417.2251498771 -1.11E-01
   235 Broy./Diag. 0.80E-01    1.5     0.01633342     -5416.8516169286  3.74E-01
   236 Broy./Diag. 0.80E-01    1.5     0.01723385     -5417.2372342815 -3.86E-01
   237 Broy./Diag. 0.80E-01    1.5     0.00259073     -5417.4907186377 -2.53E-01
   238 Broy./Diag. 0.80E-01    1.5     0.02023498     -5417.4895476870  1.17E-03
   239 Broy./Diag. 0.80E-01    1.5     0.00662011     -5417.4646430357  2.49E-02
   240 Broy./Diag. 0.80E-01    1.5     0.01203385     -5417.5885913333 -1.24E-01
   241 Broy./Diag. 0.80E-01    1.5     0.00720838     -5417.5211305767  6.75E-02
   242 Broy./Diag. 0.80E-01    1.5     0.01303349     -5417.4762739893  4.49E-02
   243 Broy./Diag. 0.80E-01    1.5     0.01920051     -5417.3271888078  1.49E-01
   244 Broy./Diag. 0.80E-01    1.5     0.01137911     -5417.4709953834 -1.44E-01
   245 Broy./Diag. 0.80E-01    1.5     0.01682641     -5417.4306115212  4.04E-02
   246 Broy./Diag. 0.80E-01    1.5     0.05536268     -5417.3171927259  1.13E-01
   247 Broy./Diag. 0.80E-01    1.5     0.00860127     -5417.7171210621 -4.00E-01
   248 Broy./Diag. 0.80E-01    1.5     0.00340747     -5417.9878438172 -2.71E-01
   249 Broy./Diag. 0.80E-01    1.5     0.01698985     -5418.0870824827 -9.92E-02
   250 Broy./Diag. 0.80E-01    1.5     0.00769251     -5418.0820936216  4.99E-03
   251 Broy./Diag. 0.80E-01    1.5     0.01296468     -5417.7805928654  3.02E-01
   252 Broy./Diag. 0.80E-01    1.5     0.02571794     -5417.9020938505 -1.22E-01
   253 Broy./Diag. 0.80E-01    1.5     0.00482697     -5417.9753954609 -7.33E-02
   254 Broy./Diag. 0.80E-01    1.5     0.00791143     -5417.9852310187 -9.84E-03
   255 Broy./Diag. 0.80E-01    1.5     0.01287841     -5417.8478295927  1.37E-01
   256 Broy./Diag. 0.80E-01    1.5     0.04567248     -5417.7642886127  8.35E-02
   257 Broy./Diag. 0.80E-01    1.5     0.01741446     -5417.4559083063  3.08E-01
   258 Broy./Diag. 0.80E-01    1.5     0.01419765     -5417.7612891578 -3.05E-01
   259 Broy./Diag. 0.80E-01    1.5     0.00299874     -5417.7103674873  5.09E-02
   260 Broy./Diag. 0.80E-01    1.5     0.01689348     -5417.8050164274 -9.46E-02
   261 Broy./Diag. 0.80E-01    1.5     0.02035495     -5418.1617946359 -3.57E-01
   262 Broy./Diag. 0.80E-01    1.5     0.00717625     -5417.8993185125  2.62E-01
   263 Broy./Diag. 0.80E-01    1.5     0.07058299     -5417.8150719327  8.42E-02
   264 Broy./Diag. 0.80E-01    1.5     0.00355660     -5418.1536252320 -3.39E-01
   265 Broy./Diag. 0.80E-01    1.5     0.01146637     -5418.1635620435 -9.94E-03
   266 Broy./Diag. 0.80E-01    1.5     0.01548832     -5418.2025532577 -3.90E-02
   267 Broy./Diag. 0.80E-01    1.5     0.00697474     -5418.0070366829  1.96E-01
   268 Broy./Diag. 0.80E-01    1.5     0.01658112     -5418.1686271629 -1.62E-01
   269 Broy./Diag. 0.80E-01    1.5     0.01135660     -5418.1004946264  6.81E-02
   270 Broy./Diag. 0.80E-01    1.5     0.02251657     -5418.1661346486 -6.56E-02
   271 Broy./Diag. 0.80E-01    1.5     0.04202996     -5417.9314640672  2.35E-01
   272 Broy./Diag. 0.80E-01    1.5     0.03154124     -5417.7611272860  1.70E-01
   273 Broy./Diag. 0.80E-01    1.5     0.01575827     -5417.9556915586 -1.95E-01
   274 Broy./Diag. 0.80E-01    1.5     0.00294409     -5417.8614905508  9.42E-02
   275 Broy./Diag. 0.80E-01    1.5     0.05024625     -5417.8672945491 -5.80E-03
   276 Broy./Diag. 0.80E-01    1.5     0.03999229     -5417.8343065939  3.30E-02
   277 Broy./Diag. 0.80E-01    1.5     0.02240217     -5417.7009405794  1.33E-01
   278 Broy./Diag. 0.80E-01    1.5     0.01395240     -5417.9485023806 -2.48E-01
   279 Broy./Diag. 0.80E-01    1.5     0.00915219     -5417.9161783470  3.23E-02
   280 Broy./Diag. 0.80E-01    1.5     0.02003975     -5417.8576005806  5.86E-02
   281 Broy./Diag. 0.80E-01    1.5     0.03191913     -5417.7344596781  1.23E-01
   282 Broy./Diag. 0.80E-01    1.5     0.02490426     -5417.8807749722 -1.46E-01
   283 Broy./Diag. 0.80E-01    1.5     0.02620947     -5417.6677990833  2.13E-01
   284 Broy./Diag. 0.80E-01    1.5     0.02260900     -5417.4680118525  2.00E-01
   285 Broy./Diag. 0.80E-01    1.5     0.00993942     -5417.6484048880 -1.80E-01
   286 Broy./Diag. 0.80E-01    1.5     0.01240037     -5417.8518211106 -2.03E-01
   287 Broy./Diag. 0.80E-01    1.5     0.05418801     -5418.0853855337 -2.34E-01
   288 Broy./Diag. 0.80E-01    1.5     0.00868266     -5418.2367667440 -1.51E-01
   289 Broy./Diag. 0.80E-01    1.5     0.00971910     -5418.1423349627  9.44E-02
   290 Broy./Diag. 0.80E-01    1.5     0.01036862     -5418.1276417126  1.47E-02
   291 Broy./Diag. 0.80E-01    1.5     0.00578375     -5418.1305119933 -2.87E-03
   292 Broy./Diag. 0.80E-01    1.5     0.04282256     -5418.1517346705 -2.12E-02
   293 Broy./Diag. 0.80E-01    1.5     0.00799656     -5418.1672189219 -1.55E-02
   294 Broy./Diag. 0.80E-01    1.5     0.02037287     -5418.1375708843  2.96E-02
   295 Broy./Diag. 0.80E-01    1.5     0.01253429     -5418.1999186387 -6.23E-02
   296 Broy./Diag. 0.80E-01    1.5     0.00753074     -5418.0711426252  1.29E-01
   297 Broy./Diag. 0.80E-01    1.5     0.00685965     -5418.0752259799 -4.08E-03
   298 Broy./Diag. 0.80E-01    1.5     0.00676445     -5418.1254640925 -5.02E-02
   299 Broy./Diag. 0.80E-01    1.5     0.01246152     -5418.1085505035  1.69E-02
   300 Broy./Diag. 0.80E-01    1.5     0.03308383     -5418.1394170168 -3.09E-02
   301 Broy./Diag. 0.80E-01    1.5     0.01489460     -5418.0766875142  6.27E-02
   302 Broy./Diag. 0.80E-01    1.5     0.05632618     -5418.0759732445  7.14E-04
   303 Broy./Diag. 0.80E-01    1.5     0.01468081     -5417.7947343984  2.81E-01
   304 Broy./Diag. 0.80E-01    1.5     0.01896233     -5417.7585940191  3.61E-02
   305 Broy./Diag. 0.80E-01    1.5     0.00703192     -5417.5635369402  1.95E-01
   306 Broy./Diag. 0.80E-01    1.5     0.00976634     -5417.5478137451  1.57E-02
   307 Broy./Diag. 0.80E-01    1.5     0.00423089     -5417.6291606038 -8.13E-02
   308 Broy./Diag. 0.80E-01    1.5     0.02760223     -5417.6213295775  7.83E-03
   309 Broy./Diag. 0.80E-01    1.5     0.02194797     -5417.7228605607 -1.02E-01
   310 Broy./Diag. 0.80E-01    1.5     0.01056480     -5417.6144800051  1.08E-01
   311 Broy./Diag. 0.80E-01    1.5     0.03401721     -5417.7224768644 -1.08E-01
   312 Broy./Diag. 0.80E-01    1.5     0.01382657     -5417.5751243326  1.47E-01
   313 Broy./Diag. 0.80E-01    1.5     0.00688257     -5417.3161883126  2.59E-01
   314 Broy./Diag. 0.80E-01    1.5     0.02588955     -5417.4072425654 -9.11E-02
   315 Broy./Diag. 0.80E-01    1.5     0.00758830     -5417.7233242079 -3.16E-01
   316 Broy./Diag. 0.80E-01    1.5     0.02691115     -5417.5881665595  1.35E-01
   317 Broy./Diag. 0.80E-01    1.5     0.01749683     -5417.5610823297  2.71E-02
   318 Broy./Diag. 0.80E-01    1.5     0.01953076     -5418.2002209636 -6.39E-01
   319 Broy./Diag. 0.80E-01    1.5     0.01650662     -5418.4840888464 -2.84E-01
   320 Broy./Diag. 0.80E-01    1.5     0.00602785     -5418.4860768678 -1.99E-03
   321 Broy./Diag. 0.80E-01    1.5     0.00753963     -5418.7960585403 -3.10E-01
   322 Broy./Diag. 0.80E-01    1.5     0.01740981     -5418.7118149814  8.42E-02
   323 Broy./Diag. 0.80E-01    1.5     0.02893790     -5418.5312694474  1.81E-01
   324 Broy./Diag. 0.80E-01    1.5     0.00989135     -5417.8312576599  7.00E-01
   325 Broy./Diag. 0.80E-01    1.5     0.01356919     -5417.3491255894  4.82E-01
   326 Broy./Diag. 0.80E-01    1.5     0.02781055     -5417.3752729854 -2.61E-02
   327 Broy./Diag. 0.80E-01    1.5     0.01386888     -5417.5074192253 -1.32E-01
   328 Broy./Diag. 0.80E-01    1.5     0.01810228     -5417.3968677793  1.11E-01
   329 Broy./Diag. 0.80E-01    1.5     0.02179265     -5417.7632642289 -3.66E-01
   330 Broy./Diag. 0.80E-01    1.5     0.02470669     -5417.4864555282  2.77E-01
   331 Broy./Diag. 0.80E-01    1.5     0.01972370     -5417.6792048678 -1.93E-01
   332 Broy./Diag. 0.80E-01    1.5     0.00388407     -5418.0498857928 -3.71E-01
   333 Broy./Diag. 0.80E-01    1.5     0.00193429     -5418.0930866569 -4.32E-02
   334 Broy./Diag. 0.80E-01    1.5     0.01034761     -5417.9116898684  1.81E-01
   335 Broy./Diag. 0.80E-01    1.5     0.02379078     -5417.8008682389  1.11E-01
   336 Broy./Diag. 0.80E-01    1.5     0.00906149     -5417.7447390217  5.61E-02
   337 Broy./Diag. 0.80E-01    1.5     0.00804397     -5417.8316001935 -8.69E-02
   338 Broy./Diag. 0.80E-01    1.5     0.01989294     -5417.7711330145  6.05E-02
   339 Broy./Diag. 0.80E-01    1.5     0.00504063     -5417.4906782844  2.80E-01
   340 Broy./Diag. 0.80E-01    1.5     0.02713070     -5417.4425701937  4.81E-02
   341 Broy./Diag. 0.80E-01    1.5     0.00546110     -5417.5143266093 -7.18E-02
   342 Broy./Diag. 0.80E-01    1.5     0.01073253     -5417.4774734683  3.69E-02
   343 Broy./Diag. 0.80E-01    1.5     0.00718821     -5417.6062245666 -1.29E-01
   344 Broy./Diag. 0.80E-01    1.5     0.01811337     -5417.6897952725 -8.36E-02
   345 Broy./Diag. 0.80E-01    1.5     0.01955151     -5417.7741219459 -8.43E-02
   346 Broy./Diag. 0.80E-01    1.5     0.01981684     -5417.8112006704 -3.71E-02
   347 Broy./Diag. 0.80E-01    1.5     0.00364332     -5417.7064817404  1.05E-01
   348 Broy./Diag. 0.80E-01    1.5     0.01379211     -5417.7277591002 -2.13E-02
   349 Broy./Diag. 0.80E-01    1.5     0.01338974     -5417.8423026381 -1.15E-01
   350 Broy./Diag. 0.80E-01    1.5     0.00333369     -5417.7197648462  1.23E-01
   351 Broy./Diag. 0.80E-01    1.5     0.02200222     -5417.6749822674  4.48E-02
   352 Broy./Diag. 0.80E-01    1.5     0.00633816     -5417.8447681393 -1.70E-01
   353 Broy./Diag. 0.80E-01    1.5     0.00971412     -5417.8937599315 -4.90E-02
   354 Broy./Diag. 0.80E-01    1.5     0.01905725     -5417.8876384875  6.12E-03
   355 Broy./Diag. 0.80E-01    1.5     0.00449479     -5417.8864677765  1.17E-03
   356 Broy./Diag. 0.80E-01    1.5     0.00595206     -5417.9427677065 -5.63E-02
   357 Broy./Diag. 0.80E-01    1.5     0.00160186     -5417.9511786856 -8.41E-03
   358 Broy./Diag. 0.80E-01    1.5     0.00328389     -5417.9324799825  1.87E-02
   359 Broy./Diag. 0.80E-01    1.5     0.00219104     -5417.9219121246  1.06E-02
   360 Broy./Diag. 0.80E-01    1.5     0.00645258     -5417.8474624729  7.44E-02
   361 Broy./Diag. 0.80E-01    1.5     0.02144649     -5417.8227027035  2.48E-02
   362 Broy./Diag. 0.80E-01    1.5     0.03970210     -5417.7606030521  6.21E-02
   363 Broy./Diag. 0.80E-01    1.5     0.00424677     -5418.3006453429 -5.40E-01
   364 Broy./Diag. 0.80E-01    1.5     0.00663246     -5418.4179478657 -1.17E-01
   365 Broy./Diag. 0.80E-01    1.5     0.00206133     -5418.6562026027 -2.38E-01
   366 Broy./Diag. 0.80E-01    1.5     0.01959535     -5418.5815013467  7.47E-02
   367 Broy./Diag. 0.80E-01    1.5     0.00994583     -5418.1440170504  4.37E-01
   368 Broy./Diag. 0.80E-01    1.5     0.00445533     -5417.9331473372  2.11E-01
   369 Broy./Diag. 0.80E-01    1.5     0.00544431     -5417.8614151569  7.17E-02
   370 Broy./Diag. 0.80E-01    1.5     0.01443238     -5417.7437080753  1.18E-01
   371 Broy./Diag. 0.80E-01    1.5     0.00864888     -5417.5115866421  2.32E-01
   372 Broy./Diag. 0.80E-01    1.5     0.00970397     -5417.3396066645  1.72E-01
   373 Broy./Diag. 0.80E-01    1.5     0.00380524     -5417.4256710887 -8.61E-02
   374 Broy./Diag. 0.80E-01    1.5     0.03287098     -5417.5237064114 -9.80E-02
   375 Broy./Diag. 0.80E-01    1.5     0.00564456     -5417.9683120028 -4.45E-01
   376 Broy./Diag. 0.80E-01    1.5     0.01634373     -5417.9262568280  4.21E-02
   377 Broy./Diag. 0.80E-01    1.5     0.00396630     -5417.8005980531  1.26E-01
