 DBCSR| CPU Multiplication driver                                           XSMM (U)
 DBCSR| Multrec recursion limit                                              512 (U)
 DBCSR| Multiplication stack size                                           1000 (D)
 DBCSR| Maximum elements for images                                    UNLIMITED (U)
 DBCSR| Multiplicative factor virtual images                                   1 (U)
 DBCSR| Use multiplication densification                                       T (D)
 DBCSR| Multiplication size stacks                                             3 (U)
 DBCSR| Use memory pool for CPU allocation                                     F (U)
 DBCSR| Number of 3D layers                                               SINGLE (U)
 DBCSR| Use MPI memory allocation                                              F (U)
 DBCSR| Use RMA algorithm                                                      F (U)
 DBCSR| Use Communication thread                                               T (U)
 DBCSR| Communication thread load                                             87 (D)
 DBCSR| MPI: My process id                                                     0
 DBCSR| MPI: Number of processes                                             128
 DBCSR| OMP: Current number of threads                                         1
 DBCSR| OMP: Max number of threads                                             1
 DBCSR| Split modifier for TAS multiplication algorithm                  1.0E+00 (U)


  **** **** ******  **  PROGRAM STARTED AT               2023-02-15 12:30:33.783
 ***** ** ***  *** **   PROGRAM STARTED ON                             nid006727
 **    ****   ******    PROGRAM STARTED BY                                cahart
 ***** **    ** ** **   PROGRAM PROCESS ID                                241278
  **** **  *******  **  PROGRAM STARTED IN /mnt/lustre/a2fs-work2/work/e05/e05/c
                                           ahart/postdoc/masters/ni/archer2/slab
                                           /optimise/magnetisation/scf_1e-4_temp
                                           -2000_mos-1000_alpha-0.08_beta-1.5_pe
                                           riodic-xyz/search/0.66_0.6

 CP2K| version string:                 CP2K version 2023.1 (Development Version)
 CP2K| source code revision number:                                  git:964cd58
 CP2K| cp2kflags: omp libint fftw3 libxc elpa parallel scalapack xsmm plumed2 mk
 CP2K|            l
 CP2K| is freely available from                            https://www.cp2k.org/
 CP2K| Program compiled at                          Mon 13 Feb 17:05:14 GMT 2023
 CP2K| Program compiled on                                                  ln01
 CP2K| Program compiled for                                              ARCHER2
 CP2K| Data directory path    /work/e05/e05/cahart/cp2k/cp2k-2023.1/cp2k-2023.1-
 CP2K| Input file name                                                  cp2k.inp

 GLOBAL| Force Environment number                                              1
 GLOBAL| Basis set file name                                        BASIS_MOLOPT
 GLOBAL| Potential file name                                      GTH_POTENTIALS
 GLOBAL| MM Potential file name                                     MM_POTENTIAL
 GLOBAL| Coordinate file name                                      __STD_INPUT__
 GLOBAL| Method name                                                        CP2K
 GLOBAL| Project name                                                    Ni_bulk
 GLOBAL| Run type                                                         ENERGY
 GLOBAL| FFT library                                                       FFTW3
 GLOBAL| Diagonalization library                                            ELPA
 GLOBAL| DGEMM library                                                      BLAS
 GLOBAL| Minimum number of eigenvectors for ELPA usage                        16
 GLOBAL| Orthonormality check for eigenvectors                          DISABLED
 GLOBAL| Matrix multiplication library                                 ScaLAPACK
 GLOBAL| All-to-all communication in single precision                          F
 GLOBAL| FFTs using library dependent lengths                                  F
 GLOBAL| Grid backend                                                       AUTO
 GLOBAL| Global print level                                               MEDIUM
 GLOBAL| MPI I/O enabled                                                       T
 GLOBAL| Total number of message passing processes                           128
 GLOBAL| Number of threads for this process                                    1
 GLOBAL| This output is from process                                           0
 GLOBAL| Stack size for threads created by OpenMP (OMP_STACKSIZE)        default
 GLOBAL| CPU model name                          AMD EPYC 7742 64-Core Processor
 GLOBAL| CPUID                                                              1002

 MEMORY| system memory details [Kb]
 MEMORY|                        rank 0           min           max       average
 MEMORY| MemTotal            263528088     263528088     263528088     263528088
 MEMORY| MemFree             238869760     238869760     238869760     238869760
 MEMORY| Buffers                 32528         32528         32528         32528
 MEMORY| Cached                 674332        674332        674332        674332
 MEMORY| Slab                  1571948       1571948       1571948       1571948
 MEMORY| SReclaimable           102460        102460        102460        102460
 MEMORY| MemLikelyFree       239679080     239679080     239679080     239679080


 *** Fundamental physical constants (SI units) ***

 *** Literature: B. J. Mohr and B. N. Taylor,
 ***             CODATA recommended values of the fundamental physical
 ***             constants: 2006, Web Version 5.1
 ***             http://physics.nist.gov/constants

 Speed of light in vacuum [m/s]                             2.99792458000000E+08
 Magnetic constant or permeability of vacuum [N/A**2]       1.25663706143592E-06
 Electric constant or permittivity of vacuum [F/m]          8.85418781762039E-12
 Planck constant (h) [J*s]                                  6.62606896000000E-34
 Planck constant (h-bar) [J*s]                              1.05457162825177E-34
 Elementary charge [C]                                      1.60217648700000E-19
 Electron mass [kg]                                         9.10938215000000E-31
 Electron g factor [ ]                                     -2.00231930436220E+00
 Proton mass [kg]                                           1.67262163700000E-27
 Fine-structure constant                                    7.29735253760000E-03
 Rydberg constant [1/m]                                     1.09737315685270E+07
 Avogadro constant [1/mol]                                  6.02214179000000E+23
 Boltzmann constant [J/K]                                   1.38065040000000E-23
 Atomic mass unit [kg]                                      1.66053878200000E-27
 Bohr radius [m]                                            5.29177208590000E-11

 *** Conversion factors ***

 [u] -> [a.u.]                                              1.82288848426455E+03
 [Angstrom] -> [Bohr] = [a.u.]                              1.88972613288564E+00
 [a.u.] = [Bohr] -> [Angstrom]                              5.29177208590000E-01
 [a.u.] -> [s]                                              2.41888432650478E-17
 [a.u.] -> [fs]                                             2.41888432650478E-02
 [a.u.] -> [J]                                              4.35974393937059E-18
 [a.u.] -> [N]                                              8.23872205491840E-08
 [a.u.] -> [K]                                              3.15774647902944E+05
 [a.u.] -> [kJ/mol]                                         2.62549961709828E+03
 [a.u.] -> [kcal/mol]                                       6.27509468713739E+02
 [a.u.] -> [Pa]                                             2.94210107994716E+13
 [a.u.] -> [bar]                                            2.94210107994716E+08
 [a.u.] -> [atm]                                            2.90362800883016E+08
 [a.u.] -> [eV]                                             2.72113838565563E+01
 [a.u.] -> [Hz]                                             6.57968392072181E+15
 [a.u.] -> [1/cm] (wave numbers)                            2.19474631370540E+05
 [a.u./Bohr**2] -> [1/cm]                                   5.14048714338585E+03
 

 CELL_TOP| Volume [angstrom^3]:                                       983.249569
 CELL_TOP| Vector a [angstrom     7.012     0.000     0.000   |a| =     7.011596
 CELL_TOP| Vector b [angstrom     0.000     7.012     0.000   |b| =     7.011596
 CELL_TOP| Vector c [angstrom     0.000     0.000    20.000   |c| =    20.000000
 CELL_TOP| Angle (b,c), alpha [degree]:                                90.000000
 CELL_TOP| Angle (a,c), beta  [degree]:                                90.000000
 CELL_TOP| Angle (a,b), gamma [degree]:                                90.000000
 CELL_TOP| Numerically orthorhombic:                                         YES
 CELL_TOP| Periodicity                                                       XYZ

 GENERATE|  Preliminary Number of Bonds generated:                             0
 GENERATE|  Achieved consistency in connectivity generation.

 CELL| Volume [angstrom^3]:                                           983.249569
 CELL| Vector a [angstrom]:       7.012     0.000     0.000   |a| =     7.011596
 CELL| Vector b [angstrom]:       0.000     7.012     0.000   |b| =     7.011596
 CELL| Vector c [angstrom]:       0.000     0.000    20.000   |c| =    20.000000
 CELL| Angle (b,c), alpha [degree]:                                    90.000000
 CELL| Angle (a,c), beta  [degree]:                                    90.000000
 CELL| Angle (a,b), gamma [degree]:                                    90.000000
 CELL| Numerically orthorhombic:                                             YES
 CELL| Periodicity                                                           XYZ

 CELL_REF| Volume [angstrom^3]:                                       983.249569
 CELL_REF| Vector a [angstrom     7.012     0.000     0.000   |a| =     7.011596
 CELL_REF| Vector b [angstrom     0.000     7.012     0.000   |b| =     7.011596
 CELL_REF| Vector c [angstrom     0.000     0.000    20.000   |c| =    20.000000
 CELL_REF| Angle (b,c), alpha [degree]:                                90.000000
 CELL_REF| Angle (a,c), beta  [degree]:                                90.000000
 CELL_REF| Angle (a,b), gamma [degree]:                                90.000000
 CELL_REF| Numerically orthorhombic:                                         YES
 CELL_REF| Periodicity                                                       XYZ

 *** WARNING in cryssym.F:165 :: Symmetry library SPGLIB not available ***


 *******************************************************************************
                                    Kpoints
 *******************************************************************************
 BRILLOUIN| K-point scheme                                        Monkhorst-Pack
 BRILLOUIN| K-Point grid                                             4    4    1
 BRILLOUIN| Accuracy in Symmetry determination                      0.100000E-05
 BRILLOUIN| K-Point point group symmetrization                               OFF
 BRILLOUIN| Wavefunction type                                            COMPLEX
 BRILLOUIN| List of Kpoints [2 Pi/Bohr]                                        8
 BRILLOUIN| Number           Weight            X              Y              Z
 BRILLOUIN|     1           0.12500       -0.37500       -0.37500        0.00000
 BRILLOUIN|     2           0.12500       -0.37500       -0.12500        0.00000
 BRILLOUIN|     3           0.12500       -0.37500        0.12500        0.00000
 BRILLOUIN|     4           0.12500       -0.37500        0.37500        0.00000
 BRILLOUIN|     5           0.12500       -0.12500       -0.37500        0.00000
 BRILLOUIN|     6           0.12500       -0.12500       -0.12500        0.00000
 BRILLOUIN|     7           0.12500       -0.12500        0.12500        0.00000
 BRILLOUIN|     8           0.12500       -0.12500        0.37500        0.00000
 *******************************************************************************

 *******************************************************************************
 *******************************************************************************
 **                                                                           **
 **     #####                         ##              ##                      **
 **    ##   ##            ##          ##              ##                      **
 **   ##     ##                       ##            ######                    **
 **   ##     ##  ##   ##  ##   #####  ##  ##   ####   ##    #####    #####    **
 **   ##     ##  ##   ##  ##  ##      ## ##   ##      ##   ##   ##  ##   ##   **
 **   ##  ## ##  ##   ##  ##  ##      ####     ###    ##   ######   ######    **
 **    ##  ###   ##   ##  ##  ##      ## ##      ##   ##   ##       ##        **
 **     #######   #####   ##   #####  ##  ##  ####    ##    #####   ##        **
 **           ##                                                    ##        **
 **                                                                           **
 **                                                ... make the atoms dance   **
 **                                                                           **
 **            Copyright (C) by CP2K developers group (2000-2023)             **
 **                      J. Chem. Phys. 152, 194103 (2020)                    **
 **                                                                           **
 *******************************************************************************

 *** WARNING in qs_environment.F:1456 :: Number of electrons will be ***
 *** overwritten by NELEC_ALPHA and NELEC_BETA, multiplicity will be ***
 *** ignored.                                                        ***

 Number of electrons should be                                               576
 Sum of NELEC_ALPHA and NELEC_BETA is                                    576.000

 *** WARNING in qs_environment.F:1488 :: NELEC_ALPHA is not an integer, ***
 *** many features will not be supported.                               ***


 *** WARNING in qs_environment.F:1500 :: NELEC_BETA is not an integer, ***
 *** many features will not be supported.                              ***


 *** WARNING in qs_environment.F:1532 :: More ADDED_MOs requested for beta ***
 *** spin than available.                                                  ***


 *** WARNING in qs_environment.F:1548 :: More added MOs requested than     ***
 *** available. The full set of unoccupied MOs will be used. Use           ***
 *** 'ADDED_MOS -1' to always use all available MOs and to get rid of this ***
 *** warning.                                                              ***


 DFT| Spin unrestricted (spin-polarized) Kohn-Sham calculation               UKS
 DFT| Multiplicity                                                             1
 DFT| Number of spin states                                                    2
 DFT| Charge                                                                   0
 DFT| Self-interaction correction (SIC)                                       NO
 DFT| Cutoffs: density                                              1.000000E-10
 DFT|          gradient                                             1.000000E-10
 DFT|          tau                                                  1.000000E-10
 DFT|          cutoff_smoothing_range                               0.000000E+00
 DFT| XC density smoothing                                                  NONE
 DFT| XC derivatives                                                          PW

 FUNCTIONAL| PBE:
 FUNCTIONAL| J.P.Perdew, K.Burke, M.Ernzerhof, Phys. Rev. Letter, vol. 77, n 18,
 FUNCTIONAL|  pp. 3865-3868, (1996){spin polarized}                             

 vdW POTENTIAL|                                                   Pair Potential
 vdW POTENTIAL|          DFT-D3 (Version 3.1)
 vdW POTENTIAL|          Potential Form: S. Grimme et al, JCP 132: 154104 (2010)
 vdW POTENTIAL|          Zero Damping
 vdW POTENTIAL|          Cutoff Radius [Bohr]:                             20.00
 vdW POTENTIAL|          s6 Scaling Factor:                               1.0000
 vdW POTENTIAL|          sr6 Scaling Factor:                              1.2170
 vdW POTENTIAL|          s8 Scaling Factor:                               0.7220
 vdW POTENTIAL|          Cutoff for CN calculation:                   0.1000E-05

 QS| Method:                                                                 GPW
 QS| Density plane wave grid type                        NON-SPHERICAL FULLSPACE
 QS| Number of grid levels:                                                    5
 QS| Density cutoff [a.u.]:                                                300.0
 QS| Multi grid cutoff [a.u.]: 1) grid level                               300.0
 QS|                           2) grid level                               100.0
 QS|                           3) grid level                                33.3
 QS|                           4) grid level                                11.1
 QS|                           5) grid level                                 3.7
 QS| Grid level progression factor:                                          3.0
 QS| Relative density cutoff [a.u.]:                                        30.0
 QS| Interaction thresholds: eps_pgf_orb:                                1.0E-06
 QS|                         eps_filter_matrix:                          0.0E+00
 QS|                         eps_core_charge:                            1.0E-14
 QS|                         eps_rho_gspace:                             1.0E-12
 QS|                         eps_rho_rspace:                             1.0E-12
 QS|                         eps_gvg_rspace:                             1.0E-06
 QS|                         eps_ppl:                                    1.0E-02
 QS|                         eps_ppnl:                                   1.0E-08


 ATOMIC KIND INFORMATION

  1. Atomic kind: Ni_i                                  Number of atoms:      16

     Orbital Basis Set                                        DZVP-MOLOPT-SR-GTH

       Number of orbital shell sets:                                           1
       Number of orbital shells:                                               8
       Number of primitive Cartesian functions:                                6
       Number of Cartesian basis functions:                                   31
       Number of spherical basis functions:                                   26
       Norm type:                                                              2

       Normalised Cartesian orbitals:

                        Set   Shell   Orbital            Exponent    Coefficient

                          1       1    2s               10.077428      -0.684558
                                                         5.847736      -0.844524
                                                         2.494033       1.088856
                                                         0.988355       0.395503
                                                         0.344978       0.010224
                                                         0.099466      -0.003250

                          1       2    3s               10.077428       0.096747
                                                         5.847736       0.162504
                                                         2.494033      -0.297192
                                                         0.988355      -0.319752
                                                         0.344978       0.088318
                                                         0.099466       0.118587

                          1       3    4s               10.077428       0.036437
                                                         5.847736      -0.381480
                                                         2.494033       0.003759
                                                         0.988355      -1.048256
                                                         0.344978       0.855825
                                                         0.099466      -0.176350

                          1       4    3px              10.077428      -3.133913
                                                         5.847736       3.027656
                                                         2.494033       2.353227
                                                         0.988355       0.554184
                                                         0.344978       0.019462
                                                         0.099466      -0.000291
                          1       4    3py              10.077428      -3.133913
                                                         5.847736       3.027656
                                                         2.494033       2.353227
                                                         0.988355       0.554184
                                                         0.344978       0.019462
                                                         0.099466      -0.000291
                          1       4    3pz              10.077428      -3.133913
                                                         5.847736       3.027656
                                                         2.494033       2.353227
                                                         0.988355       0.554184
                                                         0.344978       0.019462
                                                         0.099466      -0.000291

                          1       5    4px              10.077428      -0.112729
                                                         5.847736      -0.114008
                                                         2.494033      -0.347303
                                                         0.988355      -0.110323
                                                         0.344978       0.154096
                                                         0.099466       0.058386
                          1       5    4py              10.077428      -0.112729
                                                         5.847736      -0.114008
                                                         2.494033      -0.347303
                                                         0.988355      -0.110323
                                                         0.344978       0.154096
                                                         0.099466       0.058386
                          1       5    4pz              10.077428      -0.112729
                                                         5.847736      -0.114008
                                                         2.494033      -0.347303
                                                         0.988355      -0.110323
                                                         0.344978       0.154096
                                                         0.099466       0.058386

                          1       6    4dx2             10.077428       8.232726
                                                         5.847736       9.105758
                                                         2.494033       2.849835
                                                         0.988355       0.554319
                                                         0.344978       0.067245
                                                         0.099466       0.001940
                          1       6    4dxy             10.077428      14.259500
                                                         5.847736      15.771636
                                                         2.494033       4.936060
                                                         0.988355       0.960109
                                                         0.344978       0.116472
                                                         0.099466       0.003360
                          1       6    4dxz             10.077428      14.259500
                                                         5.847736      15.771636
                                                         2.494033       4.936060
                                                         0.988355       0.960109
                                                         0.344978       0.116472
                                                         0.099466       0.003360
                          1       6    4dy2             10.077428       8.232726
                                                         5.847736       9.105758
                                                         2.494033       2.849835
                                                         0.988355       0.554319
                                                         0.344978       0.067245
                                                         0.099466       0.001940
                          1       6    4dyz             10.077428      14.259500
                                                         5.847736      15.771636
                                                         2.494033       4.936060
                                                         0.988355       0.960109
                                                         0.344978       0.116472
                                                         0.099466       0.003360
                          1       6    4dz2             10.077428       8.232726
                                                         5.847736       9.105758
                                                         2.494033       2.849835
                                                         0.988355       0.554319
                                                         0.344978       0.067245
                                                         0.099466       0.001940

                          1       7    5dx2             10.077428      -2.715373
                                                         5.847736      -4.020640
                                                         2.494033      -1.397569
                                                         0.988355      -0.076143
                                                         0.344978       0.033435
                                                         0.099466       0.026032
                          1       7    5dxy             10.077428      -4.703164
                                                         5.847736      -6.963952
                                                         2.494033      -2.420661
                                                         0.988355      -0.131883
                                                         0.344978       0.057911
                                                         0.099466       0.045088
                          1       7    5dxz             10.077428      -4.703164
                                                         5.847736      -6.963952
                                                         2.494033      -2.420661
                                                         0.988355      -0.131883
                                                         0.344978       0.057911
                                                         0.099466       0.045088
                          1       7    5dy2             10.077428      -2.715373
                                                         5.847736      -4.020640
                                                         2.494033      -1.397569
                                                         0.988355      -0.076143
                                                         0.344978       0.033435
                                                         0.099466       0.026032
                          1       7    5dyz             10.077428      -4.703164
                                                         5.847736      -6.963952
                                                         2.494033      -2.420661
                                                         0.988355      -0.131883
                                                         0.344978       0.057911
                                                         0.099466       0.045088
                          1       7    5dz2             10.077428      -2.715373
                                                         5.847736      -4.020640
                                                         2.494033      -1.397569
                                                         0.988355      -0.076143
                                                         0.344978       0.033435
                                                         0.099466       0.026032

                          1       8    5fx3             10.077428      -0.467694
                                                         5.847736       0.618100
                                                         2.494033       0.066069
                                                         0.988355       0.262898
                                                         0.344978       0.004720
                                                         0.099466       0.007748
                          1       8    5fx2y            10.077428      -1.045795
                                                         5.847736       1.382114
                                                         2.494033       0.147734
                                                         0.988355       0.587859
                                                         0.344978       0.010555
                                                         0.099466       0.017325
                          1       8    5fx2z            10.077428      -1.045795
                                                         5.847736       1.382114
                                                         2.494033       0.147734
                                                         0.988355       0.587859
                                                         0.344978       0.010555
                                                         0.099466       0.017325
                          1       8    5fxy2            10.077428      -1.045795
                                                         5.847736       1.382114
                                                         2.494033       0.147734
                                                         0.988355       0.587859
                                                         0.344978       0.010555
                                                         0.099466       0.017325
                          1       8    5fxyz            10.077428      -1.811371
                                                         5.847736       2.393892
                                                         2.494033       0.255883
                                                         0.988355       1.018201
                                                         0.344978       0.018282
                                                         0.099466       0.030008
                          1       8    5fxz2            10.077428      -1.045795
                                                         5.847736       1.382114
                                                         2.494033       0.147734
                                                         0.988355       0.587859
                                                         0.344978       0.010555
                                                         0.099466       0.017325
                          1       8    5fy3             10.077428      -0.467694
                                                         5.847736       0.618100
                                                         2.494033       0.066069
                                                         0.988355       0.262898
                                                         0.344978       0.004720
                                                         0.099466       0.007748
                          1       8    5fy2z            10.077428      -1.045795
                                                         5.847736       1.382114
                                                         2.494033       0.147734
                                                         0.988355       0.587859
                                                         0.344978       0.010555
                                                         0.099466       0.017325
                          1       8    5fyz2            10.077428      -1.045795
                                                         5.847736       1.382114
                                                         2.494033       0.147734
                                                         0.988355       0.587859
                                                         0.344978       0.010555
                                                         0.099466       0.017325
                          1       8    5fz3             10.077428      -0.467694
                                                         5.847736       0.618100
                                                         2.494033       0.066069
                                                         0.988355       0.262898
                                                         0.344978       0.004720
                                                         0.099466       0.007748

       Atomic covalent radius [Angstrom]:                                  1.150

       Atomic van der Waals radius [Angstrom]:                             1.630

     GTH Potential information for                                   GTH-PBE-q18

       Description:                       Goedecker-Teter-Hutter pseudopotential
                                           Goedecker et al., PRB 54, 1703 (1996)
                                          Hartwigsen et al., PRB 58, 3641 (1998)
                                                      Krack, TCA 114, 145 (2005)

       Gaussian exponent of the core charge distribution:               4.081633
       Electronic configuration (s p d ...):                           4   6   8

       Parameters of the local part of the GTH pseudopotential:

                          rloc        C1          C2          C3          C4
                        0.350000    2.102166    0.648484

       Parameters of the non-local part of the GTH pseudopotential:

                   l      r(l)      h(i,j,l)

                   0    0.261295    0.622658    9.970227
                                    9.970227  -12.871507
                   1    0.224253  -11.142708   12.429566
                                   12.429566  -14.706861
                   2    0.215348  -12.628146

  2. Atomic kind: Ni_b                                  Number of atoms:      16

     Orbital Basis Set                                        DZVP-MOLOPT-SR-GTH

       Number of orbital shell sets:                                           1
       Number of orbital shells:                                               8
       Number of primitive Cartesian functions:                                6
       Number of Cartesian basis functions:                                   31
       Number of spherical basis functions:                                   26
       Norm type:                                                              2

       Normalised Cartesian orbitals:

                        Set   Shell   Orbital            Exponent    Coefficient

                          1       1    2s               10.077428      -0.684558
                                                         5.847736      -0.844524
                                                         2.494033       1.088856
                                                         0.988355       0.395503
                                                         0.344978       0.010224
                                                         0.099466      -0.003250

                          1       2    3s               10.077428       0.096747
                                                         5.847736       0.162504
                                                         2.494033      -0.297192
                                                         0.988355      -0.319752
                                                         0.344978       0.088318
                                                         0.099466       0.118587

                          1       3    4s               10.077428       0.036437
                                                         5.847736      -0.381480
                                                         2.494033       0.003759
                                                         0.988355      -1.048256
                                                         0.344978       0.855825
                                                         0.099466      -0.176350

                          1       4    3px              10.077428      -3.133913
                                                         5.847736       3.027656
                                                         2.494033       2.353227
                                                         0.988355       0.554184
                                                         0.344978       0.019462
                                                         0.099466      -0.000291
                          1       4    3py              10.077428      -3.133913
                                                         5.847736       3.027656
                                                         2.494033       2.353227
                                                         0.988355       0.554184
                                                         0.344978       0.019462
                                                         0.099466      -0.000291
                          1       4    3pz              10.077428      -3.133913
                                                         5.847736       3.027656
                                                         2.494033       2.353227
                                                         0.988355       0.554184
                                                         0.344978       0.019462
                                                         0.099466      -0.000291

                          1       5    4px              10.077428      -0.112729
                                                         5.847736      -0.114008
                                                         2.494033      -0.347303
                                                         0.988355      -0.110323
                                                         0.344978       0.154096
                                                         0.099466       0.058386
                          1       5    4py              10.077428      -0.112729
                                                         5.847736      -0.114008
                                                         2.494033      -0.347303
                                                         0.988355      -0.110323
                                                         0.344978       0.154096
                                                         0.099466       0.058386
                          1       5    4pz              10.077428      -0.112729
                                                         5.847736      -0.114008
                                                         2.494033      -0.347303
                                                         0.988355      -0.110323
                                                         0.344978       0.154096
                                                         0.099466       0.058386

                          1       6    4dx2             10.077428       8.232726
                                                         5.847736       9.105758
                                                         2.494033       2.849835
                                                         0.988355       0.554319
                                                         0.344978       0.067245
                                                         0.099466       0.001940
                          1       6    4dxy             10.077428      14.259500
                                                         5.847736      15.771636
                                                         2.494033       4.936060
                                                         0.988355       0.960109
                                                         0.344978       0.116472
                                                         0.099466       0.003360
                          1       6    4dxz             10.077428      14.259500
                                                         5.847736      15.771636
                                                         2.494033       4.936060
                                                         0.988355       0.960109
                                                         0.344978       0.116472
                                                         0.099466       0.003360
                          1       6    4dy2             10.077428       8.232726
                                                         5.847736       9.105758
                                                         2.494033       2.849835
                                                         0.988355       0.554319
                                                         0.344978       0.067245
                                                         0.099466       0.001940
                          1       6    4dyz             10.077428      14.259500
                                                         5.847736      15.771636
                                                         2.494033       4.936060
                                                         0.988355       0.960109
                                                         0.344978       0.116472
                                                         0.099466       0.003360
                          1       6    4dz2             10.077428       8.232726
                                                         5.847736       9.105758
                                                         2.494033       2.849835
                                                         0.988355       0.554319
                                                         0.344978       0.067245
                                                         0.099466       0.001940

                          1       7    5dx2             10.077428      -2.715373
                                                         5.847736      -4.020640
                                                         2.494033      -1.397569
                                                         0.988355      -0.076143
                                                         0.344978       0.033435
                                                         0.099466       0.026032
                          1       7    5dxy             10.077428      -4.703164
                                                         5.847736      -6.963952
                                                         2.494033      -2.420661
                                                         0.988355      -0.131883
                                                         0.344978       0.057911
                                                         0.099466       0.045088
                          1       7    5dxz             10.077428      -4.703164
                                                         5.847736      -6.963952
                                                         2.494033      -2.420661
                                                         0.988355      -0.131883
                                                         0.344978       0.057911
                                                         0.099466       0.045088
                          1       7    5dy2             10.077428      -2.715373
                                                         5.847736      -4.020640
                                                         2.494033      -1.397569
                                                         0.988355      -0.076143
                                                         0.344978       0.033435
                                                         0.099466       0.026032
                          1       7    5dyz             10.077428      -4.703164
                                                         5.847736      -6.963952
                                                         2.494033      -2.420661
                                                         0.988355      -0.131883
                                                         0.344978       0.057911
                                                         0.099466       0.045088
                          1       7    5dz2             10.077428      -2.715373
                                                         5.847736      -4.020640
                                                         2.494033      -1.397569
                                                         0.988355      -0.076143
                                                         0.344978       0.033435
                                                         0.099466       0.026032

                          1       8    5fx3             10.077428      -0.467694
                                                         5.847736       0.618100
                                                         2.494033       0.066069
                                                         0.988355       0.262898
                                                         0.344978       0.004720
                                                         0.099466       0.007748
                          1       8    5fx2y            10.077428      -1.045795
                                                         5.847736       1.382114
                                                         2.494033       0.147734
                                                         0.988355       0.587859
                                                         0.344978       0.010555
                                                         0.099466       0.017325
                          1       8    5fx2z            10.077428      -1.045795
                                                         5.847736       1.382114
                                                         2.494033       0.147734
                                                         0.988355       0.587859
                                                         0.344978       0.010555
                                                         0.099466       0.017325
                          1       8    5fxy2            10.077428      -1.045795
                                                         5.847736       1.382114
                                                         2.494033       0.147734
                                                         0.988355       0.587859
                                                         0.344978       0.010555
                                                         0.099466       0.017325
                          1       8    5fxyz            10.077428      -1.811371
                                                         5.847736       2.393892
                                                         2.494033       0.255883
                                                         0.988355       1.018201
                                                         0.344978       0.018282
                                                         0.099466       0.030008
                          1       8    5fxz2            10.077428      -1.045795
                                                         5.847736       1.382114
                                                         2.494033       0.147734
                                                         0.988355       0.587859
                                                         0.344978       0.010555
                                                         0.099466       0.017325
                          1       8    5fy3             10.077428      -0.467694
                                                         5.847736       0.618100
                                                         2.494033       0.066069
                                                         0.988355       0.262898
                                                         0.344978       0.004720
                                                         0.099466       0.007748
                          1       8    5fy2z            10.077428      -1.045795
                                                         5.847736       1.382114
                                                         2.494033       0.147734
                                                         0.988355       0.587859
                                                         0.344978       0.010555
                                                         0.099466       0.017325
                          1       8    5fyz2            10.077428      -1.045795
                                                         5.847736       1.382114
                                                         2.494033       0.147734
                                                         0.988355       0.587859
                                                         0.344978       0.010555
                                                         0.099466       0.017325
                          1       8    5fz3             10.077428      -0.467694
                                                         5.847736       0.618100
                                                         2.494033       0.066069
                                                         0.988355       0.262898
                                                         0.344978       0.004720
                                                         0.099466       0.007748

       Atomic covalent radius [Angstrom]:                                  1.150

       Atomic van der Waals radius [Angstrom]:                             1.630

     GTH Potential information for                                   GTH-PBE-q18

       Description:                       Goedecker-Teter-Hutter pseudopotential
                                           Goedecker et al., PRB 54, 1703 (1996)
                                          Hartwigsen et al., PRB 58, 3641 (1998)
                                                      Krack, TCA 114, 145 (2005)

       Gaussian exponent of the core charge distribution:               4.081633
       Electronic configuration (s p d ...):                           4   6   8

       Parameters of the local part of the GTH pseudopotential:

                          rloc        C1          C2          C3          C4
                        0.350000    2.102166    0.648484

       Parameters of the non-local part of the GTH pseudopotential:

                   l      r(l)      h(i,j,l)

                   0    0.261295    0.622658    9.970227
                                    9.970227  -12.871507
                   1    0.224253  -11.142708   12.429566
                                   12.429566  -14.706861
                   2    0.215348  -12.628146


 MOLECULE KIND INFORMATION


 All atoms are their own molecule, skipping detailed information


 TOTAL NUMBERS AND MAXIMUM NUMBERS

  Total number of            - Atomic kinds:                                   2
                             - Atoms:                                         32
                             - Shell sets:                                    32
                             - Shells:                                       256
                             - Primitive Cartesian functions:                192
                             - Cartesian basis functions:                    992
                             - Spherical basis functions:                    832

  Maximum angular momentum of- Orbital basis functions:                        3
                             - Local part of the GTH pseudopotential:          2
                             - Non-local part of the GTH pseudopotential:      3


 MODULE QUICKSTEP: ATOMIC COORDINATES IN ANGSTROM

   Atom Kind Element         X             Y             Z       Z(eff)     Mass
      1    1 Ni   28      0.876298      0.876298      7.370500  18.0000  58.6934
      2    1 Ni   28      0.876298      4.382298      7.370500  18.0000  58.6934
      3    1 Ni   28      2.629298      2.629298      7.370500  18.0000  58.6934
      4    1 Ni   28      2.629298      6.135298      7.370500  18.0000  58.6934
      5    1 Ni   28      4.382298      0.876298      7.370500  18.0000  58.6934
      6    1 Ni   28      4.382298      4.382298      7.370500  18.0000  58.6934
      7    1 Ni   28      6.135298      2.629298      7.370500  18.0000  58.6934
      8    1 Ni   28      6.135298      6.135298      7.370500  18.0000  58.6934
      9    2 Ni   28      0.876298      2.629298      9.123500  18.0000  58.6934
     10    2 Ni   28      0.876298      6.135298      9.123500  18.0000  58.6934
     11    2 Ni   28      2.629298      0.876298      9.123500  18.0000  58.6934
     12    2 Ni   28      2.629298      4.382298      9.123500  18.0000  58.6934
     13    2 Ni   28      4.382298      2.629298      9.123500  18.0000  58.6934
     14    2 Ni   28      4.382298      6.135298      9.123500  18.0000  58.6934
     15    2 Ni   28      6.135298      0.876298      9.123500  18.0000  58.6934
     16    2 Ni   28      6.135298      4.382298      9.123500  18.0000  58.6934
     17    2 Ni   28      0.876298      0.876298     10.876500  18.0000  58.6934
     18    2 Ni   28      0.876298      4.382298     10.876500  18.0000  58.6934
     19    2 Ni   28      2.629298      2.629298     10.876500  18.0000  58.6934
     20    2 Ni   28      2.629298      6.135298     10.876500  18.0000  58.6934
     21    2 Ni   28      4.382298      0.876298     10.876500  18.0000  58.6934
     22    2 Ni   28      4.382298      4.382298     10.876500  18.0000  58.6934
     23    2 Ni   28      6.135298      2.629298     10.876500  18.0000  58.6934
     24    2 Ni   28      6.135298      6.135298     10.876500  18.0000  58.6934
     25    1 Ni   28      0.876298      2.629298     12.629500  18.0000  58.6934
     26    1 Ni   28      0.876298      6.135298     12.629500  18.0000  58.6934
     27    1 Ni   28      2.629298      0.876298     12.629500  18.0000  58.6934
     28    1 Ni   28      2.629298      4.382298     12.629500  18.0000  58.6934
     29    1 Ni   28      4.382298      2.629298     12.629500  18.0000  58.6934
     30    1 Ni   28      4.382298      6.135298     12.629500  18.0000  58.6934
     31    1 Ni   28      6.135298      0.876298     12.629500  18.0000  58.6934
     32    1 Ni   28      6.135298      4.382298     12.629500  18.0000  58.6934



 SCF PARAMETERS         Density guess:                                    ATOMIC
                        --------------------------------------------------------
                        max_scf:                                             500
                        max_scf_history:                                       0
                        max_diis:                                              4
                        --------------------------------------------------------
                        eps_scf:                                        1.00E-04
                        eps_scf_history:                                0.00E+00
                        eps_diis:                                       1.00E-01
                        eps_eigval:                                     1.00E-05
                        --------------------------------------------------------
                        level_shift [a.u.]:                             0.000000
                        added MOs                                       533  554
                        --------------------------------------------------------
                        Mixing method:                            BROYDEN_MIXING
                                                charge density mixing in g-space
                        --------------------------------------------------------
                        Smear method:                                FERMI_DIRAC
                        Electronic temperature [K]:                       2000.0
                        Electronic temperature [a.u.]:                  6.33E-03
                        Accuracy threshold:                             1.00E-10
                        --------------------------------------------------------
                        No outer SCF

 PW_GRID| Information for grid number                                          1
 PW_GRID| Grid distributed over                                   128 processors
 PW_GRID| Real space group dimensions                                     8   16
 PW_GRID| the grid is blocked:                                               YES
 PW_GRID| Cutoff [a.u.]                                                    300.0
 PW_GRID| spherical cutoff:                                                   NO
 PW_GRID|   Bounds   1            -54      53                Points:         108
 PW_GRID|   Bounds   2            -54      53                Points:         108
 PW_GRID|   Bounds   3           -150     149                Points:         300
 PW_GRID| Volume element (a.u.^3)  0.1896E-02     Volume (a.u.^3)      6635.2971
 PW_GRID| Grid span                                                    FULLSPACE
 PW_GRID|   Distribution                         Average         Max         Min
 PW_GRID|   G-Vectors                            27337.5       28728       25272
 PW_GRID|   G-Rays                                 253.1         266         234
 PW_GRID|   Real Space Points                    27337.5       28728       25272

 PW_GRID| Information for grid number                                          2
 PW_GRID| Number of the reference grid                                         1
 PW_GRID| Grid distributed over                                   128 processors
 PW_GRID| Real space group dimensions                                     8   16
 PW_GRID| the grid is blocked:                                                NO
 PW_GRID| Cutoff [a.u.]                                                    100.0
 PW_GRID| spherical cutoff:                                                   NO
 PW_GRID|   Bounds   1            -30      29                Points:          60
 PW_GRID|   Bounds   2            -30      29                Points:          60
 PW_GRID|   Bounds   3            -90      89                Points:         180
 PW_GRID| Volume element (a.u.^3)  0.1024E-01     Volume (a.u.^3)      6635.2971
 PW_GRID| Grid span                                                    FULLSPACE
 PW_GRID|   Distribution                         Average         Max         Min
 PW_GRID|   G-Vectors                             5062.5       15960           0
 PW_GRID|   G-Rays                                  84.4         266           0
 PW_GRID|   Real Space Points                     5062.5        5760        3780

 PW_GRID| Information for grid number                                          3
 PW_GRID| Number of the reference grid                                         1
 PW_GRID| Grid distributed over                                   128 processors
 PW_GRID| Real space group dimensions                                     8   16
 PW_GRID| the grid is blocked:                                                NO
 PW_GRID| Cutoff [a.u.]                                                     33.3
 PW_GRID| spherical cutoff:                                                   NO
 PW_GRID|   Bounds   1            -18      17                Points:          36
 PW_GRID|   Bounds   2            -18      17                Points:          36
 PW_GRID|   Bounds   3            -50      49                Points:         100
 PW_GRID| Volume element (a.u.^3)  0.5120E-01     Volume (a.u.^3)      6635.2971
 PW_GRID| Grid span                                                    FULLSPACE
 PW_GRID|   Distribution                         Average         Max         Min
 PW_GRID|   G-Vectors                             1012.5        9576           0
 PW_GRID|   G-Rays                                  28.1         266           0
 PW_GRID|   Real Space Points                     1012.5        1500         800

 PW_GRID| Information for grid number                                          4
 PW_GRID| Number of the reference grid                                         1
 PW_GRID| Grid distributed over                                   128 processors
 PW_GRID| Real space group dimensions                                     8   16
 PW_GRID| the grid is blocked:                                                NO
 PW_GRID| Cutoff [a.u.]                                                     11.1
 PW_GRID| spherical cutoff:                                                   NO
 PW_GRID|   Bounds   1            -10       9                Points:          20
 PW_GRID|   Bounds   2            -10       9                Points:          20
 PW_GRID|   Bounds   3            -30      29                Points:          60
 PW_GRID| Volume element (a.u.^3)  0.2765         Volume (a.u.^3)      6635.2971
 PW_GRID| Grid span                                                    FULLSPACE
 PW_GRID|   Distribution                         Average         Max         Min
 PW_GRID|   G-Vectors                              187.5        3800           0
 PW_GRID|   G-Rays                                   9.4         190           0
 PW_GRID|   Real Space Points                      187.5         360         120

 PW_GRID| Information for grid number                                          5
 PW_GRID| Number of the reference grid                                         1
 PW_GRID| Grid distributed over                                   128 processors
 PW_GRID| Real space group dimensions                                     8   16
 PW_GRID| the grid is blocked:                                                NO
 PW_GRID| Cutoff [a.u.]                                                      3.7
 PW_GRID| spherical cutoff:                                                   NO
 PW_GRID|   Bounds   1             -6       5                Points:          12
 PW_GRID|   Bounds   2             -6       5                Points:          12
 PW_GRID|   Bounds   3            -18      17                Points:          36
 PW_GRID| Volume element (a.u.^3)   1.280         Volume (a.u.^3)      6635.2971
 PW_GRID| Grid span                                                    FULLSPACE
 PW_GRID|   Distribution                         Average         Max         Min
 PW_GRID|   G-Vectors                               40.5        1296           0
 PW_GRID|   G-Rays                                   3.4         108           0
 PW_GRID|   Real Space Points                       40.5          72           0

 POISSON| Solver                                                        PERIODIC
 POISSON| Periodicity                                                        XYZ

 RS_GRID| Information for grid number                                          1
 RS_GRID|   Bounds   1            -54      53                Points:         108
 RS_GRID|   Bounds   2            -54      53                Points:         108
 RS_GRID|   Bounds   3           -150     149                Points:         300
 RS_GRID| Real space distribution over                                  8 groups
 RS_GRID| Real space distribution along direction                              2
 RS_GRID| Border size                                                         28
 RS_GRID| Real space distribution over                                 16 groups
 RS_GRID| Real space distribution along direction                              3
 RS_GRID| Border size                                                         28
 RS_GRID|   Distribution                         Average         Max         Min
 RS_GRID|   Planes                                  69.5          70          69
 RS_GRID|   Distribution                         Average         Max         Min
 RS_GRID|   Planes                                  74.8          75          74

 RS_GRID| Information for grid number                                          2
 RS_GRID|   Bounds   1            -30      29                Points:          60
 RS_GRID|   Bounds   2            -30      29                Points:          60
 RS_GRID|   Bounds   3            -90      89                Points:         180
 RS_GRID| Real space fully replicated
 RS_GRID| Group size                                                           1

 RS_GRID| Information for grid number                                          3
 RS_GRID|   Bounds   1            -18      17                Points:          36
 RS_GRID|   Bounds   2            -18      17                Points:          36
 RS_GRID|   Bounds   3            -50      49                Points:         100
 RS_GRID| Real space fully replicated
 RS_GRID| Group size                                                           1

 RS_GRID| Information for grid number                                          4
 RS_GRID|   Bounds   1            -10       9                Points:          20
 RS_GRID|   Bounds   2            -10       9                Points:          20
 RS_GRID|   Bounds   3            -30      29                Points:          60
 RS_GRID| Real space fully replicated
 RS_GRID| Group size                                                           1

 RS_GRID| Information for grid number                                          5
 RS_GRID|   Bounds   1             -6       5                Points:          12
 RS_GRID|   Bounds   2             -6       5                Points:          12
 RS_GRID|   Bounds   3            -18      17                Points:          36
 RS_GRID| Real space fully replicated
 RS_GRID| Group size                                                           1

 Spin 1

 Number of electrons:                                                        298.080
 Number of occupied orbitals:                                                299
 Number of molecular orbitals:                                               832

 Spin 2

 Number of electrons:                                                        277.920
 Number of occupied orbitals:                                                278
 Number of molecular orbitals:                                               832

 Number of orbital functions:                                                832
 Number of independent orbital functions:                                    832

 Extrapolation method: initial_guess

 Atomic guess: The first density matrix is obtained in terms of atomic orbitals
               and electronic configurations assigned to each atomic kind

 Guess for atomic kind: Ni_i

 Electronic structure
    Total number of core electrons                                         10.00
    Total number of valence electrons                                      18.00
    Total number of electrons                                              28.00
    Multiplicity                                                         doublet
    Alpha Electrons
    S   [  1.00  1.00] 1.00  1.00
    P   [  3.00] 3.00
    D      4.30
    Beta Electrons
    S   [  1.00  1.00] 1.00  1.00
    P   [  3.00] 3.00
    D      3.70


 *******************************************************************************
                  Iteration          Convergence                     Energy [au]
 *******************************************************************************
                          1         1.51708                    -167.066118163909
                          2         15.1863                    -156.630620063797
                          3         2.29518                    -168.318250074867
                          4        0.198051                    -168.608832938310
                          5        0.762142E-01                -168.611735578094
                          6        0.143308E-01                -168.612261389358
                          7        0.453828E-02                -168.612313512258
                          8        0.436836E-02                -168.612313369107
                          9        0.696306E-03                -168.612315351147
                         10        0.226261E-02                -168.612315025774
                         11        0.995757E-03                -168.612315268998
                         12        0.170432E-03                -168.612315393602
                         13        0.195344E-03                -168.612315392852
                         14        0.147467E-03                -168.612315396817
                         15        0.185080E-03                -168.612315392680
                         16        0.969041E-04                -168.612315398729
                         17        0.991109E-04                -168.612315398505
                         18        0.433236E-04                -168.612315399326
                         19        0.269198E-04                -168.612315399408
                         20        0.109432E-04                -168.612315399455
                         21        0.443439E-05                -168.612315399480
                         22        0.816741E-05                -168.612315399471
                         23        0.470984E-05                -168.612315399481
                         24        0.245833E-05                -168.612315399483
                         25        0.100766E-05                -168.612315399484
                         26        0.417991E-06                -168.612315399483

 Energy components [Hartree]           Total Energy ::         -168.612315399483
                                        Band Energy ::          -26.569179124340
                                     Kinetic Energy ::           97.305065650248
                                   Potential Energy ::         -265.917381049731
                                      Virial (-V/T) ::            2.732821557364
                                        Core Energy ::         -299.567011526383
                                          XC Energy ::          -16.225783039068
                                     Coulomb Energy ::          147.180479165968
                       Total Pseudopotential Energy ::         -396.958417944166
                       Local Pseudopotential Energy ::         -362.646534962999
                    Nonlocal Pseudopotential Energy ::          -34.311882981167
                                        Confinement ::            0.863407675347

 Orbital energies  State     Spin  L     Occupation   Energy[a.u.]    Energy[eV]

                       1    alpha  0          1.000      -4.170511   -113.485387
                       2    alpha  0          1.000      -0.181081     -4.927469
                       1     beta  0          1.000      -4.143060   -112.738394
                       2     beta  0          1.000      -0.176746     -4.809500

                       1    alpha  1          3.000      -2.576642    -70.114003
                       1     beta  1          3.000      -2.549934    -69.387228

                       1    alpha  2          4.300      -0.325251     -8.850518
                       1     beta  2          3.700      -0.302561     -8.233099


 Total Electron Density at R=0:                                         0.030426

 Guess for atomic kind: Ni_b

 Electronic structure
    Total number of core electrons                                         10.00
    Total number of valence electrons                                      18.00
    Total number of electrons                                              28.00
    Multiplicity                                                         doublet
    Alpha Electrons
    S   [  1.00  1.00] 1.00  1.00
    P   [  3.00] 3.00
    D      4.33
    Beta Electrons
    S   [  1.00  1.00] 1.00  1.00
    P   [  3.00] 3.00
    D      3.67


 *******************************************************************************
                  Iteration          Convergence                     Energy [au]
 *******************************************************************************
                          1         1.51720                    -167.066877914120
                          2         15.3087                    -156.637619369615
                          3         2.31870                    -168.318893346293
                          4        0.203278                    -168.609456342153
                          5        0.793540E-01                -168.612397041238
                          6        0.161200E-01                -168.612964404383
                          7        0.358311E-02                -168.613028899000
                          8        0.367875E-02                -168.613028713985
                          9        0.390063E-03                -168.613030104162
                         10        0.195170E-02                -168.613029848693
                         11        0.742436E-03                -168.613030028330
                         12        0.163679E-03                -168.613030110456
                         13        0.196647E-03                -168.613030110608
                         14        0.160720E-03                -168.613030114222
                         15        0.186674E-03                -168.613030111504
                         16        0.178220E-04                -168.613030117592
                         17        0.521383E-04                -168.613030117424
                         18        0.113424E-04                -168.613030117610
                         19        0.605043E-05                -168.613030117619
                         20        0.829350E-05                -168.613030117620
                         21        0.317161E-05                -168.613030117625
                         22        0.314591E-05                -168.613030117625
                         23        0.159016E-05                -168.613030117626
                         24        0.207730E-05                -168.613030117626
                         25        0.163626E-05                -168.613030117626
                         26        0.765363E-06                -168.613030117626

 Energy components [Hartree]           Total Energy ::         -168.613030117626
                                        Band Energy ::          -26.569517285012
                                     Kinetic Energy ::           97.306028288787
                                   Potential Energy ::         -265.919058406413
                                      Virial (-V/T) ::            2.732811759794
                                        Core Energy ::         -299.567572819644
                                          XC Energy ::          -16.226600541988
                                     Coulomb Energy ::          147.181143244005
                       Total Pseudopotential Energy ::         -396.959941988063
                       Local Pseudopotential Energy ::         -362.647554017132
                    Nonlocal Pseudopotential Energy ::          -34.312387970932
                                        Confinement ::            0.863408796325

 Orbital energies  State     Spin  L     Occupation   Energy[a.u.]    Energy[eV]

                       1    alpha  0          1.000      -4.171807   -113.520637
                       2    alpha  0          1.000      -0.181291     -4.933183
                       1     beta  0          1.000      -4.141610   -112.698948
                       2     beta  0          1.000      -0.176522     -4.803409

                       1    alpha  1          3.000      -2.577903    -70.148302
                       1     beta  1          3.000      -2.548524    -69.348852

                       1    alpha  2          4.330      -0.326326     -8.879772
                       1     beta  2          3.670      -0.301367     -8.200622


 Total Electron Density at R=0:                                         0.030423

 Spin 1
 Re-scaling the density matrix to get the right number of electrons for spin 1
                  # Electrons              Trace(P)               Scaling factor
                        298.080             298.080                        1.000

 Spin 2
 Re-scaling the density matrix to get the right number of electrons for spin 2
                  # Electrons              Trace(P)               Scaling factor
                        277.920             277.920                        1.000


 SCF WAVEFUNCTION OPTIMIZATION

  Step     Update method      Time    Convergence         Total energy    Change
  ------------------------------------------------------------------------------
     1 NoMix/Diag. 0.80E-01    1.6     0.87352212     -5426.4525832654 -5.43E+03
     2 Broy./Diag. 0.80E-01    1.5     0.01586439     -5316.6479700198  1.10E+02
     3 Broy./Diag. 0.80E-01    1.5     0.05158757     -5352.5218378311 -3.59E+01
     4 Broy./Diag. 0.80E-01    1.5     0.00383763     -5415.6001416414 -6.31E+01
     5 Broy./Diag. 0.80E-01    1.5     0.01893705     -5414.7959123517  8.04E-01
     6 Broy./Diag. 0.80E-01    1.5     0.00405587     -5418.1516533336 -3.36E+00
     7 Broy./Diag. 0.80E-01    1.5     0.00542764     -5416.6610964774  1.49E+00
     8 Broy./Diag. 0.80E-01    1.5     0.00668406     -5417.4066139570 -7.46E-01
     9 Broy./Diag. 0.80E-01    1.5     0.00221391     -5417.2760562933  1.31E-01
    10 Broy./Diag. 0.80E-01    1.5     0.00177965     -5417.5832442179 -3.07E-01
    11 Broy./Diag. 0.80E-01    1.5     0.00263639     -5417.0892576445  4.94E-01
    12 Broy./Diag. 0.80E-01    1.5     0.00063818     -5417.4803937083 -3.91E-01
    13 Broy./Diag. 0.80E-01    1.5     0.00243723     -5417.5098571871 -2.95E-02
    14 Broy./Diag. 0.80E-01    1.5     0.00140790     -5417.6753703430 -1.66E-01
    15 Broy./Diag. 0.80E-01    1.5     0.00662726     -5417.6778033595 -2.43E-03
[...]
   132 Broy./Diag. 0.80E-01    1.5     0.00306858     -5417.9163547341  4.26E-02
   133 Broy./Diag. 0.80E-01    1.5     0.00528792     -5417.9374091787 -2.11E-02
   134 Broy./Diag. 0.80E-01    1.5     0.00646991     -5417.9778170355 -4.04E-02
   135 Broy./Diag. 0.80E-01    1.5     0.00151740     -5418.0180291191 -4.02E-02
   136 Broy./Diag. 0.80E-01    1.6     0.02053020     -5418.0246909163 -6.66E-03
   137 Broy./Diag. 0.80E-01    1.5     0.00267794     -5417.9461115379  7.86E-02
   138 Broy./Diag. 0.80E-01    1.5     0.00250660     -5417.9739995204 -2.79E-02
   139 Broy./Diag. 0.80E-01    1.5     0.00092974     -5418.0332957291 -5.93E-02
   140 Broy./Diag. 0.80E-01    1.5     0.00236500     -5418.0256626077  7.63E-03
   141 Broy./Diag. 0.80E-01    1.5     0.00375563     -5417.8466723096  1.79E-01
   142 Broy./Diag. 0.80E-01    1.5     0.00508479     -5417.7622312613  8.44E-02
   143 Broy./Diag. 0.80E-01    1.5     0.00639387     -5417.7808532221 -1.86E-02
   144 Broy./Diag. 0.80E-01    1.5     0.00272297     -5417.8207554001 -3.99E-02
   145 Broy./Diag. 0.80E-01    1.5     0.00350822     -5417.8318279908 -1.11E-02
   146 Broy./Diag. 0.80E-01    1.5     0.00324767     -5417.7653165403  6.65E-02
   147 Broy./Diag. 0.80E-01    1.5     0.00156450     -5417.7625411895  2.78E-03
   148 Broy./Diag. 0.80E-01    1.5     0.00528935     -5417.6488163759  1.14E-01
   149 Broy./Diag. 0.80E-01    1.5     0.00928767     -5417.6275200122  2.13E-02
   150 Broy./Diag. 0.80E-01    1.5     0.00206052     -5417.7873943971 -1.60E-01
   151 Broy./Diag. 0.80E-01    1.5     0.01123407     -5417.8213260854 -3.39E-02
   152 Broy./Diag. 0.80E-01    1.5     0.00493235     -5417.7588928936  6.24E-02
   153 Broy./Diag. 0.80E-01    1.5     0.00952667     -5417.7782896285 -1.94E-02
   154 Broy./Diag. 0.80E-01    1.5     0.00255960     -5417.7943813873 -1.61E-02
   155 Broy./Diag. 0.80E-01    1.5     0.00074789     -5417.8072116190 -1.28E-02
   156 Broy./Diag. 0.80E-01    1.5     0.00622834     -5417.7811550515  2.61E-02
   157 Broy./Diag. 0.80E-01    1.5     0.00195276     -5417.8337800507 -5.26E-02
   158 Broy./Diag. 0.80E-01    1.5     0.00725172     -5417.8277233424  6.06E-03
   159 Broy./Diag. 0.80E-01    1.5     0.00211455     -5417.8528626953 -2.51E-02
   160 Broy./Diag. 0.80E-01    1.5     0.00105499     -5417.9181853839 -6.53E-02
   161 Broy./Diag. 0.80E-01    1.5     0.00211399     -5417.9589911573 -4.08E-02
   162 Broy./Diag. 0.80E-01    1.5     0.00083459     -5417.9427018602  1.63E-02
   163 Broy./Diag. 0.80E-01    1.5     0.00198781     -5417.9315694855  1.11E-02
   164 Broy./Diag. 0.80E-01    1.5     0.00228233     -5417.8848827502  4.67E-02
   165 Broy./Diag. 0.80E-01    1.5     0.00573130     -5417.9656136957 -8.07E-02
   166 Broy./Diag. 0.80E-01    1.5     0.01148679     -5418.0898926332 -1.24E-01
   167 Broy./Diag. 0.80E-01    1.5     0.00238656     -5417.7773948668  3.12E-01
   168 Broy./Diag. 0.80E-01    1.5     0.00536050     -5417.7086951475  6.87E-02
   169 Broy./Diag. 0.80E-01    1.5     0.00662109     -5417.6303208295  7.84E-02
   170 Broy./Diag. 0.80E-01    1.5     0.00417934     -5417.6595635467 -2.92E-02
   171 Broy./Diag. 0.80E-01    1.5     0.00634338     -5417.6620933151 -2.53E-03
   172 Broy./Diag. 0.80E-01    1.5     0.00953644     -5417.5788293310  8.33E-02
   173 Broy./Diag. 0.80E-01    1.5     0.00788271     -5417.8630244715 -2.84E-01
   174 Broy./Diag. 0.80E-01    1.5     0.00228324     -5417.7223185006  1.41E-01
   175 Broy./Diag. 0.80E-01    1.5     0.00301191     -5417.7448924107 -2.26E-02
   176 Broy./Diag. 0.80E-01    1.5     0.00422226     -5417.7926336478 -4.77E-02
   177 Broy./Diag. 0.80E-01    1.5     0.00134216     -5417.7057758851  8.69E-02
   178 Broy./Diag. 0.80E-01    1.5     0.00321588     -5417.7331490909 -2.74E-02
   179 Broy./Diag. 0.80E-01    1.5     0.00445837     -5417.7682671748 -3.51E-02
   180 Broy./Diag. 0.80E-01    1.5     0.00591749     -5417.7691232069 -8.56E-04
   181 Broy./Diag. 0.80E-01    1.5     0.01525933     -5417.7204622931  4.87E-02
   182 Broy./Diag. 0.80E-01    1.5     0.00236890     -5417.8811955590 -1.61E-01
   183 Broy./Diag. 0.80E-01    1.5     0.00110658     -5417.9403034961 -5.91E-02
   184 Broy./Diag. 0.80E-01    1.5     0.00462632     -5417.9478397182 -7.54E-03
   185 Broy./Diag. 0.80E-01    1.5     0.00207646     -5417.9614282765 -1.36E-02
   186 Broy./Diag. 0.80E-01    1.5     0.00744312     -5417.9115198414  4.99E-02
   187 Broy./Diag. 0.80E-01    1.5     0.01312708     -5417.8623723175  4.91E-02
   188 Broy./Diag. 0.80E-01    1.5     0.01441761     -5417.8245091762  3.79E-02
   189 Broy./Diag. 0.80E-01    1.5     0.00511675     -5417.8477983463 -2.33E-02
   190 Broy./Diag. 0.80E-01    1.5     0.00923233     -5417.8666371039 -1.88E-02
   191 Broy./Diag. 0.80E-01    1.5     0.01151632     -5417.7231587231  1.43E-01
   192 Broy./Diag. 0.80E-01    1.5     0.01157571     -5417.7700236741 -4.69E-02
   193 Broy./Diag. 0.80E-01    1.5     0.00299795     -5417.8801203788 -1.10E-01
   194 Broy./Diag. 0.80E-01    1.5     0.00270237     -5417.8994587307 -1.93E-02
   195 Broy./Diag. 0.80E-01    1.5     0.00352948     -5417.8214868957  7.80E-02
   196 Broy./Diag. 0.80E-01    1.5     0.00656373     -5417.7010623213  1.20E-01
   197 Broy./Diag. 0.80E-01    1.5     0.00566946     -5417.6871947736  1.39E-02
   198 Broy./Diag. 0.80E-01    1.5     0.00226866     -5417.8918301485 -2.05E-01
   199 Broy./Diag. 0.80E-01    1.5     0.00832007     -5417.8879534577  3.88E-03
   200 Broy./Diag. 0.80E-01    1.5     0.00774980     -5417.9387528189 -5.08E-02
   201 Broy./Diag. 0.80E-01    1.5     0.00342332     -5418.0631179802 -1.24E-01
   202 Broy./Diag. 0.80E-01    1.5     0.00503675     -5418.0113250433  5.18E-02
   203 Broy./Diag. 0.80E-01    1.5     0.00172100     -5418.0058658338  5.46E-03
   204 Broy./Diag. 0.80E-01    1.5     0.00171923     -5418.0194323666 -1.36E-02
   205 Broy./Diag. 0.80E-01    1.5     0.00285879     -5418.0191475363  2.85E-04
   206 Broy./Diag. 0.80E-01    1.5     0.00183315     -5418.0063796286  1.28E-02
   207 Broy./Diag. 0.80E-01    1.5     0.00201762     -5417.9822736034  2.41E-02
   208 Broy./Diag. 0.80E-01    1.5     0.00607130     -5417.9500899686  3.22E-02
   209 Broy./Diag. 0.80E-01    1.5     0.00057111     -5418.0081073755 -5.80E-02
   210 Broy./Diag. 0.80E-01    1.5     0.01324639     -5418.1093927480 -1.01E-01
   211 Broy./Diag. 0.80E-01    1.5     0.00149902     -5418.0557404540  5.37E-02
   212 Broy./Diag. 0.80E-01    1.5     0.00207594     -5418.0104413751  4.53E-02
   213 Broy./Diag. 0.80E-01    1.5     0.00392157     -5418.0243882020 -1.39E-02
   214 Broy./Diag. 0.80E-01    1.5     0.00823911     -5418.0024763761  2.19E-02
   215 Broy./Diag. 0.80E-01    1.5     0.00722649     -5417.8993446296  1.03E-01
   216 Broy./Diag. 0.80E-01    1.5     0.00353582     -5417.9091621528 -9.82E-03
   217 Broy./Diag. 0.80E-01    1.5     0.00065987     -5417.9076975081  1.46E-03
   218 Broy./Diag. 0.80E-01    1.5     0.01473223     -5417.8976703688  1.00E-02
   219 Broy./Diag. 0.80E-01    1.5     0.00361030     -5417.9930644625 -9.54E-02
   220 Broy./Diag. 0.80E-01    1.5     0.00712966     -5417.9852991210  7.77E-03
   221 Broy./Diag. 0.80E-01    1.5     0.00471428     -5418.0164334509 -3.11E-02
   222 Broy./Diag. 0.80E-01    1.5     0.00899353     -5417.9095615152  1.07E-01
   223 Broy./Diag. 0.80E-01    1.5     0.00141145     -5417.8198537852  8.97E-02
   224 Broy./Diag. 0.80E-01    1.5     0.00349675     -5417.8438347739 -2.40E-02
   225 Broy./Diag. 0.80E-01    1.5     0.00505462     -5417.9071080082 -6.33E-02
   226 Broy./Diag. 0.80E-01    1.5     0.00961499     -5417.8990716894  8.04E-03
   227 Broy./Diag. 0.80E-01    1.5     0.00471081     -5417.9434796738 -4.44E-02
   228 Broy./Diag. 0.80E-01    1.5     0.00090520     -5417.9389076751  4.57E-03
   229 Broy./Diag. 0.80E-01    1.5     0.00217841     -5417.9291694198  9.74E-03
   230 Broy./Diag. 0.80E-01    1.5     0.00341226     -5417.8996982773  2.95E-02
   231 Broy./Diag. 0.80E-01    1.5     0.00104352     -5417.8832093903  1.65E-02
   232 Broy./Diag. 0.80E-01    1.5     0.00404053     -5417.8434316043  3.98E-02
   233 Broy./Diag. 0.80E-01    1.5     0.00204190     -5417.8789073584 -3.55E-02
   234 Broy./Diag. 0.80E-01    1.5     0.00219727     -5417.8544519526  2.45E-02
   235 Broy./Diag. 0.80E-01    1.5     0.00689261     -5417.8702272028 -1.58E-02
   236 Broy./Diag. 0.80E-01    1.5     0.00605178     -5417.7352895627  1.35E-01
   237 Broy./Diag. 0.80E-01    1.5     0.00184621     -5417.8172568390 -8.20E-02
   238 Broy./Diag. 0.80E-01    1.5     0.00372832     -5417.8057349139  1.15E-02
   239 Broy./Diag. 0.80E-01    1.5     0.00190183     -5417.8189325196 -1.32E-02
   240 Broy./Diag. 0.80E-01    1.5     0.00546888     -5417.7868709235  3.21E-02
   241 Broy./Diag. 0.80E-01    1.5     0.00460337     -5417.7228982758  6.40E-02
   242 Broy./Diag. 0.80E-01    1.5     0.00686225     -5417.7640896145 -4.12E-02
   243 Broy./Diag. 0.80E-01    1.5     0.00428034     -5417.7938441386 -2.98E-02
   244 Broy./Diag. 0.80E-01    1.5     0.00117682     -5417.9171924150 -1.23E-01
   245 Broy./Diag. 0.80E-01    1.5     0.00617745     -5417.9884794404 -7.13E-02
   246 Broy./Diag. 0.80E-01    1.5     0.00645572     -5417.8770198429  1.11E-01
   247 Broy./Diag. 0.80E-01    1.5     0.00615366     -5417.8937525687 -1.67E-02
   248 Broy./Diag. 0.80E-01    1.5     0.00884225     -5417.9313103360 -3.76E-02
   249 Broy./Diag. 0.80E-01    1.5     0.00907252     -5417.8888365611  4.25E-02
   250 Broy./Diag. 0.80E-01    1.5     0.01119331     -5417.7404235450  1.48E-01
   251 Broy./Diag. 0.80E-01    1.5     0.00473598     -5417.8020179714 -6.16E-02
   252 Broy./Diag. 0.80E-01    1.5     0.01000672     -5417.7786522756  2.34E-02
   253 Broy./Diag. 0.80E-01    1.5     0.00268559     -5417.8637871247 -8.51E-02
   254 Broy./Diag. 0.80E-01    1.5     0.00233412     -5417.8449109321  1.89E-02
   255 Broy./Diag. 0.80E-01    1.5     0.00418138     -5417.8347802801  1.01E-02
   256 Broy./Diag. 0.80E-01    1.5     0.00369418     -5417.8315430662  3.24E-03
   257 Broy./Diag. 0.80E-01    1.5     0.00161783     -5417.8300050872  1.54E-03
   258 Broy./Diag. 0.80E-01    1.5     0.00900443     -5417.8307165439 -7.11E-04
   259 Broy./Diag. 0.80E-01    1.5     0.00758807     -5417.6859044555  1.45E-01
   260 Broy./Diag. 0.80E-01    1.5     0.01446840     -5417.8619291802 -1.76E-01
   261 Broy./Diag. 0.80E-01    1.5     0.01057034     -5417.8268405709  3.51E-02
   262 Broy./Diag. 0.80E-01    1.5     0.01495748     -5417.9161748207 -8.93E-02
   263 Broy./Diag. 0.80E-01    1.5     0.00589030     -5417.6463617304  2.70E-01
   264 Broy./Diag. 0.80E-01    1.5     0.00695077     -5417.6058243547  4.05E-02
   265 Broy./Diag. 0.80E-01    1.5     0.01259732     -5417.5603104510  4.55E-02
   266 Broy./Diag. 0.80E-01    1.5     0.00801972     -5417.6460800416 -8.58E-02
   267 Broy./Diag. 0.80E-01    1.5     0.01197452     -5417.6781469780 -3.21E-02
   268 Broy./Diag. 0.80E-01    1.5     0.00796339     -5417.5227466074  1.55E-01
   269 Broy./Diag. 0.80E-01    1.5     0.00565256     -5417.6758320059 -1.53E-01
   270 Broy./Diag. 0.80E-01    1.5     0.00876039     -5417.5290020134  1.47E-01
   271 Broy./Diag. 0.80E-01    1.5     0.00272792     -5417.6540398981 -1.25E-01
   272 Broy./Diag. 0.80E-01    1.5     0.00490293     -5417.6294111304  2.46E-02
   273 Broy./Diag. 0.80E-01    1.5     0.00387646     -5417.5155101552  1.14E-01
   274 Broy./Diag. 0.80E-01    1.5     0.00869631     -5417.4646861383  5.08E-02
   275 Broy./Diag. 0.80E-01    1.5     0.01078293     -5417.5355417070 -7.09E-02
   276 Broy./Diag. 0.80E-01    1.5     0.00413882     -5417.4320593082  1.03E-01
   277 Broy./Diag. 0.80E-01    1.5     0.00268264     -5417.4310911211  9.68E-04
   278 Broy./Diag. 0.80E-01    1.5     0.00952357     -5417.4824177197 -5.13E-02
   279 Broy./Diag. 0.80E-01    1.5     0.00714987     -5417.6264042305 -1.44E-01
   280 Broy./Diag. 0.80E-01    1.5     0.00842519     -5417.6603393363 -3.39E-02
   281 Broy./Diag. 0.80E-01    1.5     0.01092514     -5417.8000273482 -1.40E-01
   282 Broy./Diag. 0.80E-01    1.5     0.01052014     -5417.5602076651  2.40E-01
   283 Broy./Diag. 0.80E-01    1.5     0.00244980     -5417.6010633546 -4.09E-02
   284 Broy./Diag. 0.80E-01    1.5     0.00852804     -5417.5898777519  1.12E-02
   285 Broy./Diag. 0.80E-01    1.5     0.00898414     -5417.4833828361  1.06E-01
   286 Broy./Diag. 0.80E-01    1.5     0.00208838     -5417.5961978601 -1.13E-01
   287 Broy./Diag. 0.80E-01    1.5     0.00328894     -5417.5944264728  1.77E-03
   288 Broy./Diag. 0.80E-01    1.5     0.03092144     -5417.5502679251  4.42E-02
   289 Broy./Diag. 0.80E-01    1.5     0.03103827     -5416.9377327327  6.13E-01
   290 Broy./Diag. 0.80E-01    1.5     0.02145352     -5417.6914519787 -7.54E-01
   291 Broy./Diag. 0.80E-01    1.5     0.01899237     -5416.8801199873  8.11E-01
   292 Broy./Diag. 0.80E-01    1.5     0.00580708     -5417.8632606332 -9.83E-01
   293 Broy./Diag. 0.80E-01    1.5     0.00423617     -5417.9343657470 -7.11E-02
   294 Broy./Diag. 0.80E-01    1.5     0.00319113     -5417.8975281778  3.68E-02
   295 Broy./Diag. 0.80E-01    1.5     0.00208312     -5418.1291330916 -2.32E-01
   296 Broy./Diag. 0.80E-01    1.5     0.00471349     -5418.1500976717 -2.10E-02
   297 Broy./Diag. 0.80E-01    1.5     0.00460734     -5418.0877630781  6.23E-02
   298 Broy./Diag. 0.80E-01    1.5     0.00140090     -5418.0739134159  1.38E-02
   299 Broy./Diag. 0.80E-01    1.5     0.00229435     -5418.0874967986 -1.36E-02
   300 Broy./Diag. 0.80E-01    1.5     0.00187586     -5418.0448771883  4.26E-02
   301 Broy./Diag. 0.80E-01    1.5     0.00434955     -5418.0586763649 -1.38E-02
   302 Broy./Diag. 0.80E-01    1.5     0.00283241     -5418.0798762274 -2.12E-02
   303 Broy./Diag. 0.80E-01    1.5     0.00228554     -5418.0302466802  4.96E-02
   304 Broy./Diag. 0.80E-01    1.5     0.00669538     -5418.0282144551  2.03E-03
   305 Broy./Diag. 0.80E-01    1.5     0.00376913     -5418.0528424287 -2.46E-02
   306 Broy./Diag. 0.80E-01    1.5     0.00372466     -5418.0305655665  2.23E-02
   307 Broy./Diag. 0.80E-01    1.5     0.01112628     -5417.9491675981  8.14E-02
   308 Broy./Diag. 0.80E-01    1.5     0.00291277     -5417.9512714061 -2.10E-03
   309 Broy./Diag. 0.80E-01    1.5     0.00132018     -5418.0610516962 -1.10E-01
   310 Broy./Diag. 0.80E-01    1.5     0.00120044     -5418.0853810194 -2.43E-02
   311 Broy./Diag. 0.80E-01    1.5     0.00548321     -5418.0193398561  6.60E-02
   312 Broy./Diag. 0.80E-01    1.5     0.00344707     -5418.0417073757 -2.24E-02
   313 Broy./Diag. 0.80E-01    1.5     0.00083090     -5418.0165323022  2.52E-02
   314 Broy./Diag. 0.80E-01    1.5     0.00345594     -5418.0242643083 -7.73E-03
   315 Broy./Diag. 0.80E-01    1.5     0.00792063     -5418.0722773740 -4.80E-02
   316 Broy./Diag. 0.80E-01    1.5     0.00635967     -5418.0122800103  6.00E-02
   317 Broy./Diag. 0.80E-01    1.5     0.00340781     -5417.9401165406  7.22E-02
   318 Broy./Diag. 0.80E-01    1.5     0.00394488     -5418.0223876878 -8.23E-02
   319 Broy./Diag. 0.80E-01    1.5     0.00377997     -5418.0786207779 -5.62E-02
   320 Broy./Diag. 0.80E-01    1.5     0.00616877     -5418.1637136702 -8.51E-02
   321 Broy./Diag. 0.80E-01    1.5     0.00500531     -5418.1035618411  6.02E-02
   322 Broy./Diag. 0.80E-01    1.5     0.00136525     -5418.0777167050  2.58E-02
   323 Broy./Diag. 0.80E-01    1.5     0.00207095     -5418.0174750288  6.02E-02
   324 Broy./Diag. 0.80E-01    1.5     0.00905834     -5417.8678668052  1.50E-01
   325 Broy./Diag. 0.80E-01    1.5     0.00502540     -5417.8821063066 -1.42E-02
   326 Broy./Diag. 0.80E-01    1.5     0.00973504     -5417.8785824900  3.52E-03
   327 Broy./Diag. 0.80E-01    1.5     0.00954499     -5417.6876179115  1.91E-01
   328 Broy./Diag. 0.80E-01    1.5     0.01119659     -5418.0233060081 -3.36E-01
   329 Broy./Diag. 0.80E-01    1.5     0.00272774     -5417.9513965775  7.19E-02
   330 Broy./Diag. 0.80E-01    1.5     0.00948377     -5418.0115023333 -6.01E-02
   331 Broy./Diag. 0.80E-01    1.5     0.01601175     -5417.9583482601  5.32E-02
   332 Broy./Diag. 0.80E-01    1.5     0.02057007     -5418.0280704669 -6.97E-02
   333 Broy./Diag. 0.80E-01    1.5     0.00249571     -5418.1745152832 -1.46E-01
   334 Broy./Diag. 0.80E-01    1.5     0.00963918     -5418.2082735228 -3.38E-02
   335 Broy./Diag. 0.80E-01    1.5     0.00483821     -5418.0571645756  1.51E-01
   336 Broy./Diag. 0.80E-01    1.5     0.00556137     -5417.9623874825  9.48E-02
   337 Broy./Diag. 0.80E-01    1.5     0.00131877     -5417.8788981105  8.35E-02
   338 Broy./Diag. 0.80E-01    1.5     0.00129520     -5417.8503238604  2.86E-02
   339 Broy./Diag. 0.80E-01    1.5     0.00214722     -5417.8725667883 -2.22E-02
   340 Broy./Diag. 0.80E-01    1.5     0.00086529     -5417.8781145728 -5.55E-03
   341 Broy./Diag. 0.80E-01    1.5     0.00219493     -5417.9386150712 -6.05E-02
   342 Broy./Diag. 0.80E-01    1.5     0.00188652     -5417.9259677957  1.26E-02
   343 Broy./Diag. 0.80E-01    1.5     0.00037583     -5417.8893035209  3.67E-02
   344 Broy./Diag. 0.80E-01    1.5     0.00229139     -5417.8754433809  1.39E-02
   345 Broy./Diag. 0.80E-01    1.5     0.00794491     -5417.8205257890  5.49E-02
   346 Broy./Diag. 0.80E-01    1.5     0.00889872     -5417.9371798849 -1.17E-01
   347 Broy./Diag. 0.80E-01    1.5     0.00309405     -5417.8750183994  6.22E-02
   348 Broy./Diag. 0.80E-01    1.5     0.00695789     -5417.9056970536 -3.07E-02
   349 Broy./Diag. 0.80E-01    1.5     0.00611762     -5417.8628145700  4.29E-02
   350 Broy./Diag. 0.80E-01    1.5     0.00707470     -5417.8784818246 -1.57E-02
   351 Broy./Diag. 0.80E-01    1.5     0.01017647     -5417.8787369934 -2.55E-04
   352 Broy./Diag. 0.80E-01    1.5     0.00149538     -5417.9674662631 -8.87E-02
   353 Broy./Diag. 0.80E-01    1.5     0.00256421     -5417.9246798007  4.28E-02
   354 Broy./Diag. 0.80E-01    1.5     0.00668992     -5417.9471905198 -2.25E-02
   355 Broy./Diag. 0.80E-01    1.5     0.00075528     -5417.9487503215 -1.56E-03
   356 Broy./Diag. 0.80E-01    1.5     0.00655544     -5417.8904220283  5.83E-02
   357 Broy./Diag. 0.80E-01    1.5     0.00588933     -5417.8548674989  3.56E-02
   358 Broy./Diag. 0.80E-01    1.5     0.00458086     -5417.8062033552  4.87E-02
   359 Broy./Diag. 0.80E-01    1.5     0.00580561     -5417.7628450528  4.34E-02
   360 Broy./Diag. 0.80E-01    1.5     0.00078740     -5417.8396614535 -7.68E-02
   361 Broy./Diag. 0.80E-01    1.5     0.00275026     -5417.8305836972  9.08E-03
   362 Broy./Diag. 0.80E-01    1.5     0.00301143     -5417.8134845672  1.71E-02
   363 Broy./Diag. 0.80E-01    1.5     0.00430759     -5417.8685167071 -5.50E-02
   364 Broy./Diag. 0.80E-01    1.5     0.00419769     -5417.8492676715  1.92E-02
   365 Broy./Diag. 0.80E-01    1.5     0.00622702     -5417.8271914456  2.21E-02
   366 Broy./Diag. 0.80E-01    1.5     0.00594545     -5417.8464295884 -1.92E-02
   367 Broy./Diag. 0.80E-01    1.5     0.00692654     -5417.8582080876 -1.18E-02
   368 Broy./Diag. 0.80E-01    1.5     0.01152200     -5417.8627279911 -4.52E-03
   369 Broy./Diag. 0.80E-01    1.5     0.02735928     -5417.7281405058  1.35E-01
   370 Broy./Diag. 0.80E-01    1.5     0.02365247     -5417.8864149920 -1.58E-01
   371 Broy./Diag. 0.80E-01    1.5     0.02779073     -5417.5463506226  3.40E-01
   372 Broy./Diag. 0.80E-01    1.5     0.02669938     -5417.6040397000 -5.77E-02
   373 Broy./Diag. 0.80E-01    1.5     0.00906041     -5418.0596231408 -4.56E-01
   374 Broy./Diag. 0.80E-01    1.5     0.04351766     -5418.0167917343  4.28E-02
   375 Broy./Diag. 0.80E-01    1.5     0.05023862     -5417.7425633257  2.74E-01
   376 Broy./Diag. 0.80E-01    1.5     0.07250586     -5417.9600601105 -2.17E-01
   377 Broy./Diag. 0.80E-01    1.5     0.05287404     -5418.5352935818 -5.75E-01
