 DBCSR| CPU Multiplication driver                                           XSMM (U)
 DBCSR| Multrec recursion limit                                              512 (U)
 DBCSR| Multiplication stack size                                           1000 (D)
 DBCSR| Maximum elements for images                                    UNLIMITED (U)
 DBCSR| Multiplicative factor virtual images                                   1 (U)
 DBCSR| Use multiplication densification                                       T (D)
 DBCSR| Multiplication size stacks                                             3 (U)
 DBCSR| Use memory pool for CPU allocation                                     F (U)
 DBCSR| Number of 3D layers                                               SINGLE (U)
 DBCSR| Use MPI memory allocation                                              F (U)
 DBCSR| Use RMA algorithm                                                      F (U)
 DBCSR| Use Communication thread                                               T (U)
 DBCSR| Communication thread load                                             87 (D)
 DBCSR| MPI: My process id                                                     0
 DBCSR| MPI: Number of processes                                             128
 DBCSR| OMP: Current number of threads                                         1
 DBCSR| OMP: Max number of threads                                             1
 DBCSR| Split modifier for TAS multiplication algorithm                  1.0E+00 (U)


  **** **** ******  **  PROGRAM STARTED AT               2023-02-15 11:40:08.477
 ***** ** ***  *** **   PROGRAM STARTED ON                             nid001452
 **    ****   ******    PROGRAM STARTED BY                                cahart
 ***** **    ** ** **   PROGRAM PROCESS ID                                206719
  **** **  *******  **  PROGRAM STARTED IN /mnt/lustre/a2fs-work2/work/e05/e05/c
                                           ahart/postdoc/masters/ni/archer2/slab
                                           /optimise/magnetisation/scf_1e-4_temp
                                           -2000_mos-1000_alpha-0.08_beta-1.5_pe
                                           riodic-xyz/search/0.55_0.5

 CP2K| version string:                 CP2K version 2023.1 (Development Version)
 CP2K| source code revision number:                                  git:964cd58
 CP2K| cp2kflags: omp libint fftw3 libxc elpa parallel scalapack xsmm plumed2 mk
 CP2K|            l
 CP2K| is freely available from                            https://www.cp2k.org/
 CP2K| Program compiled at                          Mon 13 Feb 17:05:14 GMT 2023
 CP2K| Program compiled on                                                  ln01
 CP2K| Program compiled for                                              ARCHER2
 CP2K| Data directory path    /work/e05/e05/cahart/cp2k/cp2k-2023.1/cp2k-2023.1-
 CP2K| Input file name                                                  cp2k.inp

 GLOBAL| Force Environment number                                              1
 GLOBAL| Basis set file name                                        BASIS_MOLOPT
 GLOBAL| Potential file name                                      GTH_POTENTIALS
 GLOBAL| MM Potential file name                                     MM_POTENTIAL
 GLOBAL| Coordinate file name                                      __STD_INPUT__
 GLOBAL| Method name                                                        CP2K
 GLOBAL| Project name                                                    Ni_bulk
 GLOBAL| Run type                                                         ENERGY
 GLOBAL| FFT library                                                       FFTW3
 GLOBAL| Diagonalization library                                            ELPA
 GLOBAL| DGEMM library                                                      BLAS
 GLOBAL| Minimum number of eigenvectors for ELPA usage                        16
 GLOBAL| Orthonormality check for eigenvectors                          DISABLED
 GLOBAL| Matrix multiplication library                                 ScaLAPACK
 GLOBAL| All-to-all communication in single precision                          F
 GLOBAL| FFTs using library dependent lengths                                  F
 GLOBAL| Grid backend                                                       AUTO
 GLOBAL| Global print level                                               MEDIUM
 GLOBAL| MPI I/O enabled                                                       T
 GLOBAL| Total number of message passing processes                           128
 GLOBAL| Number of threads for this process                                    1
 GLOBAL| This output is from process                                           0
 GLOBAL| Stack size for threads created by OpenMP (OMP_STACKSIZE)        default
 GLOBAL| CPU model name                          AMD EPYC 7742 64-Core Processor
 GLOBAL| CPUID                                                              1002

 MEMORY| system memory details [Kb]
 MEMORY|                        rank 0           min           max       average
 MEMORY| MemTotal            263527824     263527824     263527824     263527824
 MEMORY| MemFree             238627752     238627752     238627752     238627752
 MEMORY| Buffers                 25848         25848         25848         25848
 MEMORY| Cached                 731644        731644        731644        731644
 MEMORY| Slab                  1623456       1623456       1623456       1623456
 MEMORY| SReclaimable           124296        124296        124296        124296
 MEMORY| MemLikelyFree       239509540     239509540     239509540     239509540


 *** Fundamental physical constants (SI units) ***

 *** Literature: B. J. Mohr and B. N. Taylor,
 ***             CODATA recommended values of the fundamental physical
 ***             constants: 2006, Web Version 5.1
 ***             http://physics.nist.gov/constants

 Speed of light in vacuum [m/s]                             2.99792458000000E+08
 Magnetic constant or permeability of vacuum [N/A**2]       1.25663706143592E-06
 Electric constant or permittivity of vacuum [F/m]          8.85418781762039E-12
 Planck constant (h) [J*s]                                  6.62606896000000E-34
 Planck constant (h-bar) [J*s]                              1.05457162825177E-34
 Elementary charge [C]                                      1.60217648700000E-19
 Electron mass [kg]                                         9.10938215000000E-31
 Electron g factor [ ]                                     -2.00231930436220E+00
 Proton mass [kg]                                           1.67262163700000E-27
 Fine-structure constant                                    7.29735253760000E-03
 Rydberg constant [1/m]                                     1.09737315685270E+07
 Avogadro constant [1/mol]                                  6.02214179000000E+23
 Boltzmann constant [J/K]                                   1.38065040000000E-23
 Atomic mass unit [kg]                                      1.66053878200000E-27
 Bohr radius [m]                                            5.29177208590000E-11

 *** Conversion factors ***

 [u] -> [a.u.]                                              1.82288848426455E+03
 [Angstrom] -> [Bohr] = [a.u.]                              1.88972613288564E+00
 [a.u.] = [Bohr] -> [Angstrom]                              5.29177208590000E-01
 [a.u.] -> [s]                                              2.41888432650478E-17
 [a.u.] -> [fs]                                             2.41888432650478E-02
 [a.u.] -> [J]                                              4.35974393937059E-18
 [a.u.] -> [N]                                              8.23872205491840E-08
 [a.u.] -> [K]                                              3.15774647902944E+05
 [a.u.] -> [kJ/mol]                                         2.62549961709828E+03
 [a.u.] -> [kcal/mol]                                       6.27509468713739E+02
 [a.u.] -> [Pa]                                             2.94210107994716E+13
 [a.u.] -> [bar]                                            2.94210107994716E+08
 [a.u.] -> [atm]                                            2.90362800883016E+08
 [a.u.] -> [eV]                                             2.72113838565563E+01
 [a.u.] -> [Hz]                                             6.57968392072181E+15
 [a.u.] -> [1/cm] (wave numbers)                            2.19474631370540E+05
 [a.u./Bohr**2] -> [1/cm]                                   5.14048714338585E+03
 

 CELL_TOP| Volume [angstrom^3]:                                       983.249569
 CELL_TOP| Vector a [angstrom     7.012     0.000     0.000   |a| =     7.011596
 CELL_TOP| Vector b [angstrom     0.000     7.012     0.000   |b| =     7.011596
 CELL_TOP| Vector c [angstrom     0.000     0.000    20.000   |c| =    20.000000
 CELL_TOP| Angle (b,c), alpha [degree]:                                90.000000
 CELL_TOP| Angle (a,c), beta  [degree]:                                90.000000
 CELL_TOP| Angle (a,b), gamma [degree]:                                90.000000
 CELL_TOP| Numerically orthorhombic:                                         YES
 CELL_TOP| Periodicity                                                       XYZ

 GENERATE|  Preliminary Number of Bonds generated:                             0
 GENERATE|  Achieved consistency in connectivity generation.

 CELL| Volume [angstrom^3]:                                           983.249569
 CELL| Vector a [angstrom]:       7.012     0.000     0.000   |a| =     7.011596
 CELL| Vector b [angstrom]:       0.000     7.012     0.000   |b| =     7.011596
 CELL| Vector c [angstrom]:       0.000     0.000    20.000   |c| =    20.000000
 CELL| Angle (b,c), alpha [degree]:                                    90.000000
 CELL| Angle (a,c), beta  [degree]:                                    90.000000
 CELL| Angle (a,b), gamma [degree]:                                    90.000000
 CELL| Numerically orthorhombic:                                             YES
 CELL| Periodicity                                                           XYZ

 CELL_REF| Volume [angstrom^3]:                                       983.249569
 CELL_REF| Vector a [angstrom     7.012     0.000     0.000   |a| =     7.011596
 CELL_REF| Vector b [angstrom     0.000     7.012     0.000   |b| =     7.011596
 CELL_REF| Vector c [angstrom     0.000     0.000    20.000   |c| =    20.000000
 CELL_REF| Angle (b,c), alpha [degree]:                                90.000000
 CELL_REF| Angle (a,c), beta  [degree]:                                90.000000
 CELL_REF| Angle (a,b), gamma [degree]:                                90.000000
 CELL_REF| Numerically orthorhombic:                                         YES
 CELL_REF| Periodicity                                                       XYZ

 *** WARNING in cryssym.F:165 :: Symmetry library SPGLIB not available ***


 *******************************************************************************
                                    Kpoints
 *******************************************************************************
 BRILLOUIN| K-point scheme                                        Monkhorst-Pack
 BRILLOUIN| K-Point grid                                             4    4    1
 BRILLOUIN| Accuracy in Symmetry determination                      0.100000E-05
 BRILLOUIN| K-Point point group symmetrization                               OFF
 BRILLOUIN| Wavefunction type                                            COMPLEX
 BRILLOUIN| List of Kpoints [2 Pi/Bohr]                                        8
 BRILLOUIN| Number           Weight            X              Y              Z
 BRILLOUIN|     1           0.12500       -0.37500       -0.37500        0.00000
 BRILLOUIN|     2           0.12500       -0.37500       -0.12500        0.00000
 BRILLOUIN|     3           0.12500       -0.37500        0.12500        0.00000
 BRILLOUIN|     4           0.12500       -0.37500        0.37500        0.00000
 BRILLOUIN|     5           0.12500       -0.12500       -0.37500        0.00000
 BRILLOUIN|     6           0.12500       -0.12500       -0.12500        0.00000
 BRILLOUIN|     7           0.12500       -0.12500        0.12500        0.00000
 BRILLOUIN|     8           0.12500       -0.12500        0.37500        0.00000
 *******************************************************************************

 *******************************************************************************
 *******************************************************************************
 **                                                                           **
 **     #####                         ##              ##                      **
 **    ##   ##            ##          ##              ##                      **
 **   ##     ##                       ##            ######                    **
 **   ##     ##  ##   ##  ##   #####  ##  ##   ####   ##    #####    #####    **
 **   ##     ##  ##   ##  ##  ##      ## ##   ##      ##   ##   ##  ##   ##   **
 **   ##  ## ##  ##   ##  ##  ##      ####     ###    ##   ######   ######    **
 **    ##  ###   ##   ##  ##  ##      ## ##      ##   ##   ##       ##        **
 **     #######   #####   ##   #####  ##  ##  ####    ##    #####   ##        **
 **           ##                                                    ##        **
 **                                                                           **
 **                                                ... make the atoms dance   **
 **                                                                           **
 **            Copyright (C) by CP2K developers group (2000-2023)             **
 **                      J. Chem. Phys. 152, 194103 (2020)                    **
 **                                                                           **
 *******************************************************************************

 *** WARNING in qs_environment.F:1456 :: Number of electrons will be ***
 *** overwritten by NELEC_ALPHA and NELEC_BETA, multiplicity will be ***
 *** ignored.                                                        ***

 Number of electrons should be                                               576
 Sum of NELEC_ALPHA and NELEC_BETA is                                    576.000

 *** WARNING in qs_environment.F:1488 :: NELEC_ALPHA is not an integer, ***
 *** many features will not be supported.                               ***


 *** WARNING in qs_environment.F:1500 :: NELEC_BETA is not an integer, ***
 *** many features will not be supported.                              ***


 *** WARNING in qs_environment.F:1532 :: More ADDED_MOs requested for beta ***
 *** spin than available.                                                  ***


 *** WARNING in qs_environment.F:1548 :: More added MOs requested than     ***
 *** available. The full set of unoccupied MOs will be used. Use           ***
 *** 'ADDED_MOS -1' to always use all available MOs and to get rid of this ***
 *** warning.                                                              ***


 DFT| Spin unrestricted (spin-polarized) Kohn-Sham calculation               UKS
 DFT| Multiplicity                                                             1
 DFT| Number of spin states                                                    2
 DFT| Charge                                                                   0
 DFT| Self-interaction correction (SIC)                                       NO
 DFT| Cutoffs: density                                              1.000000E-10
 DFT|          gradient                                             1.000000E-10
 DFT|          tau                                                  1.000000E-10
 DFT|          cutoff_smoothing_range                               0.000000E+00
 DFT| XC density smoothing                                                  NONE
 DFT| XC derivatives                                                          PW

 FUNCTIONAL| PBE:
 FUNCTIONAL| J.P.Perdew, K.Burke, M.Ernzerhof, Phys. Rev. Letter, vol. 77, n 18,
 FUNCTIONAL|  pp. 3865-3868, (1996){spin polarized}                             

 vdW POTENTIAL|                                                   Pair Potential
 vdW POTENTIAL|          DFT-D3 (Version 3.1)
 vdW POTENTIAL|          Potential Form: S. Grimme et al, JCP 132: 154104 (2010)
 vdW POTENTIAL|          Zero Damping
 vdW POTENTIAL|          Cutoff Radius [Bohr]:                             20.00
 vdW POTENTIAL|          s6 Scaling Factor:                               1.0000
 vdW POTENTIAL|          sr6 Scaling Factor:                              1.2170
 vdW POTENTIAL|          s8 Scaling Factor:                               0.7220
 vdW POTENTIAL|          Cutoff for CN calculation:                   0.1000E-05

 QS| Method:                                                                 GPW
 QS| Density plane wave grid type                        NON-SPHERICAL FULLSPACE
 QS| Number of grid levels:                                                    5
 QS| Density cutoff [a.u.]:                                                300.0
 QS| Multi grid cutoff [a.u.]: 1) grid level                               300.0
 QS|                           2) grid level                               100.0
 QS|                           3) grid level                                33.3
 QS|                           4) grid level                                11.1
 QS|                           5) grid level                                 3.7
 QS| Grid level progression factor:                                          3.0
 QS| Relative density cutoff [a.u.]:                                        30.0
 QS| Interaction thresholds: eps_pgf_orb:                                1.0E-06
 QS|                         eps_filter_matrix:                          0.0E+00
 QS|                         eps_core_charge:                            1.0E-14
 QS|                         eps_rho_gspace:                             1.0E-12
 QS|                         eps_rho_rspace:                             1.0E-12
 QS|                         eps_gvg_rspace:                             1.0E-06
 QS|                         eps_ppl:                                    1.0E-02
 QS|                         eps_ppnl:                                   1.0E-08


 ATOMIC KIND INFORMATION

  1. Atomic kind: Ni_i                                  Number of atoms:      16

     Orbital Basis Set                                        DZVP-MOLOPT-SR-GTH

       Number of orbital shell sets:                                           1
       Number of orbital shells:                                               8
       Number of primitive Cartesian functions:                                6
       Number of Cartesian basis functions:                                   31
       Number of spherical basis functions:                                   26
       Norm type:                                                              2

       Normalised Cartesian orbitals:

                        Set   Shell   Orbital            Exponent    Coefficient

                          1       1    2s               10.077428      -0.684558
                                                         5.847736      -0.844524
                                                         2.494033       1.088856
                                                         0.988355       0.395503
                                                         0.344978       0.010224
                                                         0.099466      -0.003250

                          1       2    3s               10.077428       0.096747
                                                         5.847736       0.162504
                                                         2.494033      -0.297192
                                                         0.988355      -0.319752
                                                         0.344978       0.088318
                                                         0.099466       0.118587

                          1       3    4s               10.077428       0.036437
                                                         5.847736      -0.381480
                                                         2.494033       0.003759
                                                         0.988355      -1.048256
                                                         0.344978       0.855825
                                                         0.099466      -0.176350

                          1       4    3px              10.077428      -3.133913
                                                         5.847736       3.027656
                                                         2.494033       2.353227
                                                         0.988355       0.554184
                                                         0.344978       0.019462
                                                         0.099466      -0.000291
                          1       4    3py              10.077428      -3.133913
                                                         5.847736       3.027656
                                                         2.494033       2.353227
                                                         0.988355       0.554184
                                                         0.344978       0.019462
                                                         0.099466      -0.000291
                          1       4    3pz              10.077428      -3.133913
                                                         5.847736       3.027656
                                                         2.494033       2.353227
                                                         0.988355       0.554184
                                                         0.344978       0.019462
                                                         0.099466      -0.000291

                          1       5    4px              10.077428      -0.112729
                                                         5.847736      -0.114008
                                                         2.494033      -0.347303
                                                         0.988355      -0.110323
                                                         0.344978       0.154096
                                                         0.099466       0.058386
                          1       5    4py              10.077428      -0.112729
                                                         5.847736      -0.114008
                                                         2.494033      -0.347303
                                                         0.988355      -0.110323
                                                         0.344978       0.154096
                                                         0.099466       0.058386
                          1       5    4pz              10.077428      -0.112729
                                                         5.847736      -0.114008
                                                         2.494033      -0.347303
                                                         0.988355      -0.110323
                                                         0.344978       0.154096
                                                         0.099466       0.058386

                          1       6    4dx2             10.077428       8.232726
                                                         5.847736       9.105758
                                                         2.494033       2.849835
                                                         0.988355       0.554319
                                                         0.344978       0.067245
                                                         0.099466       0.001940
                          1       6    4dxy             10.077428      14.259500
                                                         5.847736      15.771636
                                                         2.494033       4.936060
                                                         0.988355       0.960109
                                                         0.344978       0.116472
                                                         0.099466       0.003360
                          1       6    4dxz             10.077428      14.259500
                                                         5.847736      15.771636
                                                         2.494033       4.936060
                                                         0.988355       0.960109
                                                         0.344978       0.116472
                                                         0.099466       0.003360
                          1       6    4dy2             10.077428       8.232726
                                                         5.847736       9.105758
                                                         2.494033       2.849835
                                                         0.988355       0.554319
                                                         0.344978       0.067245
                                                         0.099466       0.001940
                          1       6    4dyz             10.077428      14.259500
                                                         5.847736      15.771636
                                                         2.494033       4.936060
                                                         0.988355       0.960109
                                                         0.344978       0.116472
                                                         0.099466       0.003360
                          1       6    4dz2             10.077428       8.232726
                                                         5.847736       9.105758
                                                         2.494033       2.849835
                                                         0.988355       0.554319
                                                         0.344978       0.067245
                                                         0.099466       0.001940

                          1       7    5dx2             10.077428      -2.715373
                                                         5.847736      -4.020640
                                                         2.494033      -1.397569
                                                         0.988355      -0.076143
                                                         0.344978       0.033435
                                                         0.099466       0.026032
                          1       7    5dxy             10.077428      -4.703164
                                                         5.847736      -6.963952
                                                         2.494033      -2.420661
                                                         0.988355      -0.131883
                                                         0.344978       0.057911
                                                         0.099466       0.045088
                          1       7    5dxz             10.077428      -4.703164
                                                         5.847736      -6.963952
                                                         2.494033      -2.420661
                                                         0.988355      -0.131883
                                                         0.344978       0.057911
                                                         0.099466       0.045088
                          1       7    5dy2             10.077428      -2.715373
                                                         5.847736      -4.020640
                                                         2.494033      -1.397569
                                                         0.988355      -0.076143
                                                         0.344978       0.033435
                                                         0.099466       0.026032
                          1       7    5dyz             10.077428      -4.703164
                                                         5.847736      -6.963952
                                                         2.494033      -2.420661
                                                         0.988355      -0.131883
                                                         0.344978       0.057911
                                                         0.099466       0.045088
                          1       7    5dz2             10.077428      -2.715373
                                                         5.847736      -4.020640
                                                         2.494033      -1.397569
                                                         0.988355      -0.076143
                                                         0.344978       0.033435
                                                         0.099466       0.026032

                          1       8    5fx3             10.077428      -0.467694
                                                         5.847736       0.618100
                                                         2.494033       0.066069
                                                         0.988355       0.262898
                                                         0.344978       0.004720
                                                         0.099466       0.007748
                          1       8    5fx2y            10.077428      -1.045795
                                                         5.847736       1.382114
                                                         2.494033       0.147734
                                                         0.988355       0.587859
                                                         0.344978       0.010555
                                                         0.099466       0.017325
                          1       8    5fx2z            10.077428      -1.045795
                                                         5.847736       1.382114
                                                         2.494033       0.147734
                                                         0.988355       0.587859
                                                         0.344978       0.010555
                                                         0.099466       0.017325
                          1       8    5fxy2            10.077428      -1.045795
                                                         5.847736       1.382114
                                                         2.494033       0.147734
                                                         0.988355       0.587859
                                                         0.344978       0.010555
                                                         0.099466       0.017325
                          1       8    5fxyz            10.077428      -1.811371
                                                         5.847736       2.393892
                                                         2.494033       0.255883
                                                         0.988355       1.018201
                                                         0.344978       0.018282
                                                         0.099466       0.030008
                          1       8    5fxz2            10.077428      -1.045795
                                                         5.847736       1.382114
                                                         2.494033       0.147734
                                                         0.988355       0.587859
                                                         0.344978       0.010555
                                                         0.099466       0.017325
                          1       8    5fy3             10.077428      -0.467694
                                                         5.847736       0.618100
                                                         2.494033       0.066069
                                                         0.988355       0.262898
                                                         0.344978       0.004720
                                                         0.099466       0.007748
                          1       8    5fy2z            10.077428      -1.045795
                                                         5.847736       1.382114
                                                         2.494033       0.147734
                                                         0.988355       0.587859
                                                         0.344978       0.010555
                                                         0.099466       0.017325
                          1       8    5fyz2            10.077428      -1.045795
                                                         5.847736       1.382114
                                                         2.494033       0.147734
                                                         0.988355       0.587859
                                                         0.344978       0.010555
                                                         0.099466       0.017325
                          1       8    5fz3             10.077428      -0.467694
                                                         5.847736       0.618100
                                                         2.494033       0.066069
                                                         0.988355       0.262898
                                                         0.344978       0.004720
                                                         0.099466       0.007748

       Atomic covalent radius [Angstrom]:                                  1.150

       Atomic van der Waals radius [Angstrom]:                             1.630

     GTH Potential information for                                   GTH-PBE-q18

       Description:                       Goedecker-Teter-Hutter pseudopotential
                                           Goedecker et al., PRB 54, 1703 (1996)
                                          Hartwigsen et al., PRB 58, 3641 (1998)
                                                      Krack, TCA 114, 145 (2005)

       Gaussian exponent of the core charge distribution:               4.081633
       Electronic configuration (s p d ...):                           4   6   8

       Parameters of the local part of the GTH pseudopotential:

                          rloc        C1          C2          C3          C4
                        0.350000    2.102166    0.648484

       Parameters of the non-local part of the GTH pseudopotential:

                   l      r(l)      h(i,j,l)

                   0    0.261295    0.622658    9.970227
                                    9.970227  -12.871507
                   1    0.224253  -11.142708   12.429566
                                   12.429566  -14.706861
                   2    0.215348  -12.628146

  2. Atomic kind: Ni_b                                  Number of atoms:      16

     Orbital Basis Set                                        DZVP-MOLOPT-SR-GTH

       Number of orbital shell sets:                                           1
       Number of orbital shells:                                               8
       Number of primitive Cartesian functions:                                6
       Number of Cartesian basis functions:                                   31
       Number of spherical basis functions:                                   26
       Norm type:                                                              2

       Normalised Cartesian orbitals:

                        Set   Shell   Orbital            Exponent    Coefficient

                          1       1    2s               10.077428      -0.684558
                                                         5.847736      -0.844524
                                                         2.494033       1.088856
                                                         0.988355       0.395503
                                                         0.344978       0.010224
                                                         0.099466      -0.003250

                          1       2    3s               10.077428       0.096747
                                                         5.847736       0.162504
                                                         2.494033      -0.297192
                                                         0.988355      -0.319752
                                                         0.344978       0.088318
                                                         0.099466       0.118587

                          1       3    4s               10.077428       0.036437
                                                         5.847736      -0.381480
                                                         2.494033       0.003759
                                                         0.988355      -1.048256
                                                         0.344978       0.855825
                                                         0.099466      -0.176350

                          1       4    3px              10.077428      -3.133913
                                                         5.847736       3.027656
                                                         2.494033       2.353227
                                                         0.988355       0.554184
                                                         0.344978       0.019462
                                                         0.099466      -0.000291
                          1       4    3py              10.077428      -3.133913
                                                         5.847736       3.027656
                                                         2.494033       2.353227
                                                         0.988355       0.554184
                                                         0.344978       0.019462
                                                         0.099466      -0.000291
                          1       4    3pz              10.077428      -3.133913
                                                         5.847736       3.027656
                                                         2.494033       2.353227
                                                         0.988355       0.554184
                                                         0.344978       0.019462
                                                         0.099466      -0.000291

                          1       5    4px              10.077428      -0.112729
                                                         5.847736      -0.114008
                                                         2.494033      -0.347303
                                                         0.988355      -0.110323
                                                         0.344978       0.154096
                                                         0.099466       0.058386
                          1       5    4py              10.077428      -0.112729
                                                         5.847736      -0.114008
                                                         2.494033      -0.347303
                                                         0.988355      -0.110323
                                                         0.344978       0.154096
                                                         0.099466       0.058386
                          1       5    4pz              10.077428      -0.112729
                                                         5.847736      -0.114008
                                                         2.494033      -0.347303
                                                         0.988355      -0.110323
                                                         0.344978       0.154096
                                                         0.099466       0.058386

                          1       6    4dx2             10.077428       8.232726
                                                         5.847736       9.105758
                                                         2.494033       2.849835
                                                         0.988355       0.554319
                                                         0.344978       0.067245
                                                         0.099466       0.001940
                          1       6    4dxy             10.077428      14.259500
                                                         5.847736      15.771636
                                                         2.494033       4.936060
                                                         0.988355       0.960109
                                                         0.344978       0.116472
                                                         0.099466       0.003360
                          1       6    4dxz             10.077428      14.259500
                                                         5.847736      15.771636
                                                         2.494033       4.936060
                                                         0.988355       0.960109
                                                         0.344978       0.116472
                                                         0.099466       0.003360
                          1       6    4dy2             10.077428       8.232726
                                                         5.847736       9.105758
                                                         2.494033       2.849835
                                                         0.988355       0.554319
                                                         0.344978       0.067245
                                                         0.099466       0.001940
                          1       6    4dyz             10.077428      14.259500
                                                         5.847736      15.771636
                                                         2.494033       4.936060
                                                         0.988355       0.960109
                                                         0.344978       0.116472
                                                         0.099466       0.003360
                          1       6    4dz2             10.077428       8.232726
                                                         5.847736       9.105758
                                                         2.494033       2.849835
                                                         0.988355       0.554319
                                                         0.344978       0.067245
                                                         0.099466       0.001940

                          1       7    5dx2             10.077428      -2.715373
                                                         5.847736      -4.020640
                                                         2.494033      -1.397569
                                                         0.988355      -0.076143
                                                         0.344978       0.033435
                                                         0.099466       0.026032
                          1       7    5dxy             10.077428      -4.703164
                                                         5.847736      -6.963952
                                                         2.494033      -2.420661
                                                         0.988355      -0.131883
                                                         0.344978       0.057911
                                                         0.099466       0.045088
                          1       7    5dxz             10.077428      -4.703164
                                                         5.847736      -6.963952
                                                         2.494033      -2.420661
                                                         0.988355      -0.131883
                                                         0.344978       0.057911
                                                         0.099466       0.045088
                          1       7    5dy2             10.077428      -2.715373
                                                         5.847736      -4.020640
                                                         2.494033      -1.397569
                                                         0.988355      -0.076143
                                                         0.344978       0.033435
                                                         0.099466       0.026032
                          1       7    5dyz             10.077428      -4.703164
                                                         5.847736      -6.963952
                                                         2.494033      -2.420661
                                                         0.988355      -0.131883
                                                         0.344978       0.057911
                                                         0.099466       0.045088
                          1       7    5dz2             10.077428      -2.715373
                                                         5.847736      -4.020640
                                                         2.494033      -1.397569
                                                         0.988355      -0.076143
                                                         0.344978       0.033435
                                                         0.099466       0.026032

                          1       8    5fx3             10.077428      -0.467694
                                                         5.847736       0.618100
                                                         2.494033       0.066069
                                                         0.988355       0.262898
                                                         0.344978       0.004720
                                                         0.099466       0.007748
                          1       8    5fx2y            10.077428      -1.045795
                                                         5.847736       1.382114
                                                         2.494033       0.147734
                                                         0.988355       0.587859
                                                         0.344978       0.010555
                                                         0.099466       0.017325
                          1       8    5fx2z            10.077428      -1.045795
                                                         5.847736       1.382114
                                                         2.494033       0.147734
                                                         0.988355       0.587859
                                                         0.344978       0.010555
                                                         0.099466       0.017325
                          1       8    5fxy2            10.077428      -1.045795
                                                         5.847736       1.382114
                                                         2.494033       0.147734
                                                         0.988355       0.587859
                                                         0.344978       0.010555
                                                         0.099466       0.017325
                          1       8    5fxyz            10.077428      -1.811371
                                                         5.847736       2.393892
                                                         2.494033       0.255883
                                                         0.988355       1.018201
                                                         0.344978       0.018282
                                                         0.099466       0.030008
                          1       8    5fxz2            10.077428      -1.045795
                                                         5.847736       1.382114
                                                         2.494033       0.147734
                                                         0.988355       0.587859
                                                         0.344978       0.010555
                                                         0.099466       0.017325
                          1       8    5fy3             10.077428      -0.467694
                                                         5.847736       0.618100
                                                         2.494033       0.066069
                                                         0.988355       0.262898
                                                         0.344978       0.004720
                                                         0.099466       0.007748
                          1       8    5fy2z            10.077428      -1.045795
                                                         5.847736       1.382114
                                                         2.494033       0.147734
                                                         0.988355       0.587859
                                                         0.344978       0.010555
                                                         0.099466       0.017325
                          1       8    5fyz2            10.077428      -1.045795
                                                         5.847736       1.382114
                                                         2.494033       0.147734
                                                         0.988355       0.587859
                                                         0.344978       0.010555
                                                         0.099466       0.017325
                          1       8    5fz3             10.077428      -0.467694
                                                         5.847736       0.618100
                                                         2.494033       0.066069
                                                         0.988355       0.262898
                                                         0.344978       0.004720
                                                         0.099466       0.007748

       Atomic covalent radius [Angstrom]:                                  1.150

       Atomic van der Waals radius [Angstrom]:                             1.630

     GTH Potential information for                                   GTH-PBE-q18

       Description:                       Goedecker-Teter-Hutter pseudopotential
                                           Goedecker et al., PRB 54, 1703 (1996)
                                          Hartwigsen et al., PRB 58, 3641 (1998)
                                                      Krack, TCA 114, 145 (2005)

       Gaussian exponent of the core charge distribution:               4.081633
       Electronic configuration (s p d ...):                           4   6   8

       Parameters of the local part of the GTH pseudopotential:

                          rloc        C1          C2          C3          C4
                        0.350000    2.102166    0.648484

       Parameters of the non-local part of the GTH pseudopotential:

                   l      r(l)      h(i,j,l)

                   0    0.261295    0.622658    9.970227
                                    9.970227  -12.871507
                   1    0.224253  -11.142708   12.429566
                                   12.429566  -14.706861
                   2    0.215348  -12.628146


 MOLECULE KIND INFORMATION


 All atoms are their own molecule, skipping detailed information


 TOTAL NUMBERS AND MAXIMUM NUMBERS

  Total number of            - Atomic kinds:                                   2
                             - Atoms:                                         32
                             - Shell sets:                                    32
                             - Shells:                                       256
                             - Primitive Cartesian functions:                192
                             - Cartesian basis functions:                    992
                             - Spherical basis functions:                    832

  Maximum angular momentum of- Orbital basis functions:                        3
                             - Local part of the GTH pseudopotential:          2
                             - Non-local part of the GTH pseudopotential:      3


 MODULE QUICKSTEP: ATOMIC COORDINATES IN ANGSTROM

   Atom Kind Element         X             Y             Z       Z(eff)     Mass
      1    1 Ni   28      0.876298      0.876298      7.370500  18.0000  58.6934
      2    1 Ni   28      0.876298      4.382298      7.370500  18.0000  58.6934
      3    1 Ni   28      2.629298      2.629298      7.370500  18.0000  58.6934
      4    1 Ni   28      2.629298      6.135298      7.370500  18.0000  58.6934
      5    1 Ni   28      4.382298      0.876298      7.370500  18.0000  58.6934
      6    1 Ni   28      4.382298      4.382298      7.370500  18.0000  58.6934
      7    1 Ni   28      6.135298      2.629298      7.370500  18.0000  58.6934
      8    1 Ni   28      6.135298      6.135298      7.370500  18.0000  58.6934
      9    2 Ni   28      0.876298      2.629298      9.123500  18.0000  58.6934
     10    2 Ni   28      0.876298      6.135298      9.123500  18.0000  58.6934
     11    2 Ni   28      2.629298      0.876298      9.123500  18.0000  58.6934
     12    2 Ni   28      2.629298      4.382298      9.123500  18.0000  58.6934
     13    2 Ni   28      4.382298      2.629298      9.123500  18.0000  58.6934
     14    2 Ni   28      4.382298      6.135298      9.123500  18.0000  58.6934
     15    2 Ni   28      6.135298      0.876298      9.123500  18.0000  58.6934
     16    2 Ni   28      6.135298      4.382298      9.123500  18.0000  58.6934
     17    2 Ni   28      0.876298      0.876298     10.876500  18.0000  58.6934
     18    2 Ni   28      0.876298      4.382298     10.876500  18.0000  58.6934
     19    2 Ni   28      2.629298      2.629298     10.876500  18.0000  58.6934
     20    2 Ni   28      2.629298      6.135298     10.876500  18.0000  58.6934
     21    2 Ni   28      4.382298      0.876298     10.876500  18.0000  58.6934
     22    2 Ni   28      4.382298      4.382298     10.876500  18.0000  58.6934
     23    2 Ni   28      6.135298      2.629298     10.876500  18.0000  58.6934
     24    2 Ni   28      6.135298      6.135298     10.876500  18.0000  58.6934
     25    1 Ni   28      0.876298      2.629298     12.629500  18.0000  58.6934
     26    1 Ni   28      0.876298      6.135298     12.629500  18.0000  58.6934
     27    1 Ni   28      2.629298      0.876298     12.629500  18.0000  58.6934
     28    1 Ni   28      2.629298      4.382298     12.629500  18.0000  58.6934
     29    1 Ni   28      4.382298      2.629298     12.629500  18.0000  58.6934
     30    1 Ni   28      4.382298      6.135298     12.629500  18.0000  58.6934
     31    1 Ni   28      6.135298      0.876298     12.629500  18.0000  58.6934
     32    1 Ni   28      6.135298      4.382298     12.629500  18.0000  58.6934



 SCF PARAMETERS         Density guess:                                    ATOMIC
                        --------------------------------------------------------
                        max_scf:                                             500
                        max_scf_history:                                       0
                        max_diis:                                              4
                        --------------------------------------------------------
                        eps_scf:                                        1.00E-04
                        eps_scf_history:                                0.00E+00
                        eps_diis:                                       1.00E-01
                        eps_eigval:                                     1.00E-05
                        --------------------------------------------------------
                        level_shift [a.u.]:                             0.000000
                        added MOs                                       535  552
                        --------------------------------------------------------
                        Mixing method:                            BROYDEN_MIXING
                                                charge density mixing in g-space
                        --------------------------------------------------------
                        Smear method:                                FERMI_DIRAC
                        Electronic temperature [K]:                       2000.0
                        Electronic temperature [a.u.]:                  6.33E-03
                        Accuracy threshold:                             1.00E-10
                        --------------------------------------------------------
                        No outer SCF

 PW_GRID| Information for grid number                                          1
 PW_GRID| Grid distributed over                                   128 processors
 PW_GRID| Real space group dimensions                                     8   16
 PW_GRID| the grid is blocked:                                               YES
 PW_GRID| Cutoff [a.u.]                                                    300.0
 PW_GRID| spherical cutoff:                                                   NO
 PW_GRID|   Bounds   1            -54      53                Points:         108
 PW_GRID|   Bounds   2            -54      53                Points:         108
 PW_GRID|   Bounds   3           -150     149                Points:         300
 PW_GRID| Volume element (a.u.^3)  0.1896E-02     Volume (a.u.^3)      6635.2971
 PW_GRID| Grid span                                                    FULLSPACE
 PW_GRID|   Distribution                         Average         Max         Min
 PW_GRID|   G-Vectors                            27337.5       28728       25272
 PW_GRID|   G-Rays                                 253.1         266         234
 PW_GRID|   Real Space Points                    27337.5       28728       25272

 PW_GRID| Information for grid number                                          2
 PW_GRID| Number of the reference grid                                         1
 PW_GRID| Grid distributed over                                   128 processors
 PW_GRID| Real space group dimensions                                     8   16
 PW_GRID| the grid is blocked:                                                NO
 PW_GRID| Cutoff [a.u.]                                                    100.0
 PW_GRID| spherical cutoff:                                                   NO
 PW_GRID|   Bounds   1            -30      29                Points:          60
 PW_GRID|   Bounds   2            -30      29                Points:          60
 PW_GRID|   Bounds   3            -90      89                Points:         180
 PW_GRID| Volume element (a.u.^3)  0.1024E-01     Volume (a.u.^3)      6635.2971
 PW_GRID| Grid span                                                    FULLSPACE
 PW_GRID|   Distribution                         Average         Max         Min
 PW_GRID|   G-Vectors                             5062.5       15960           0
 PW_GRID|   G-Rays                                  84.4         266           0
 PW_GRID|   Real Space Points                     5062.5        5760        3780

 PW_GRID| Information for grid number                                          3
 PW_GRID| Number of the reference grid                                         1
 PW_GRID| Grid distributed over                                   128 processors
 PW_GRID| Real space group dimensions                                     8   16
 PW_GRID| the grid is blocked:                                                NO
 PW_GRID| Cutoff [a.u.]                                                     33.3
 PW_GRID| spherical cutoff:                                                   NO
 PW_GRID|   Bounds   1            -18      17                Points:          36
 PW_GRID|   Bounds   2            -18      17                Points:          36
 PW_GRID|   Bounds   3            -50      49                Points:         100
 PW_GRID| Volume element (a.u.^3)  0.5120E-01     Volume (a.u.^3)      6635.2971
 PW_GRID| Grid span                                                    FULLSPACE
 PW_GRID|   Distribution                         Average         Max         Min
 PW_GRID|   G-Vectors                             1012.5        9576           0
 PW_GRID|   G-Rays                                  28.1         266           0
 PW_GRID|   Real Space Points                     1012.5        1500         800

 PW_GRID| Information for grid number                                          4
 PW_GRID| Number of the reference grid                                         1
 PW_GRID| Grid distributed over                                   128 processors
 PW_GRID| Real space group dimensions                                     8   16
 PW_GRID| the grid is blocked:                                                NO
 PW_GRID| Cutoff [a.u.]                                                     11.1
 PW_GRID| spherical cutoff:                                                   NO
 PW_GRID|   Bounds   1            -10       9                Points:          20
 PW_GRID|   Bounds   2            -10       9                Points:          20
 PW_GRID|   Bounds   3            -30      29                Points:          60
 PW_GRID| Volume element (a.u.^3)  0.2765         Volume (a.u.^3)      6635.2971
 PW_GRID| Grid span                                                    FULLSPACE
 PW_GRID|   Distribution                         Average         Max         Min
 PW_GRID|   G-Vectors                              187.5        3800           0
 PW_GRID|   G-Rays                                   9.4         190           0
 PW_GRID|   Real Space Points                      187.5         360         120

 PW_GRID| Information for grid number                                          5
 PW_GRID| Number of the reference grid                                         1
 PW_GRID| Grid distributed over                                   128 processors
 PW_GRID| Real space group dimensions                                     8   16
 PW_GRID| the grid is blocked:                                                NO
 PW_GRID| Cutoff [a.u.]                                                      3.7
 PW_GRID| spherical cutoff:                                                   NO
 PW_GRID|   Bounds   1             -6       5                Points:          12
 PW_GRID|   Bounds   2             -6       5                Points:          12
 PW_GRID|   Bounds   3            -18      17                Points:          36
 PW_GRID| Volume element (a.u.^3)   1.280         Volume (a.u.^3)      6635.2971
 PW_GRID| Grid span                                                    FULLSPACE
 PW_GRID|   Distribution                         Average         Max         Min
 PW_GRID|   G-Vectors                               40.5        1296           0
 PW_GRID|   G-Rays                                   3.4         108           0
 PW_GRID|   Real Space Points                       40.5          72           0

 POISSON| Solver                                                        PERIODIC
 POISSON| Periodicity                                                        XYZ

 RS_GRID| Information for grid number                                          1
 RS_GRID|   Bounds   1            -54      53                Points:         108
 RS_GRID|   Bounds   2            -54      53                Points:         108
 RS_GRID|   Bounds   3           -150     149                Points:         300
 RS_GRID| Real space distribution over                                  8 groups
 RS_GRID| Real space distribution along direction                              2
 RS_GRID| Border size                                                         28
 RS_GRID| Real space distribution over                                 16 groups
 RS_GRID| Real space distribution along direction                              3
 RS_GRID| Border size                                                         28
 RS_GRID|   Distribution                         Average         Max         Min
 RS_GRID|   Planes                                  69.5          70          69
 RS_GRID|   Distribution                         Average         Max         Min
 RS_GRID|   Planes                                  74.8          75          74

 RS_GRID| Information for grid number                                          2
 RS_GRID|   Bounds   1            -30      29                Points:          60
 RS_GRID|   Bounds   2            -30      29                Points:          60
 RS_GRID|   Bounds   3            -90      89                Points:         180
 RS_GRID| Real space fully replicated
 RS_GRID| Group size                                                           1

 RS_GRID| Information for grid number                                          3
 RS_GRID|   Bounds   1            -18      17                Points:          36
 RS_GRID|   Bounds   2            -18      17                Points:          36
 RS_GRID|   Bounds   3            -50      49                Points:         100
 RS_GRID| Real space fully replicated
 RS_GRID| Group size                                                           1

 RS_GRID| Information for grid number                                          4
 RS_GRID|   Bounds   1            -10       9                Points:          20
 RS_GRID|   Bounds   2            -10       9                Points:          20
 RS_GRID|   Bounds   3            -30      29                Points:          60
 RS_GRID| Real space fully replicated
 RS_GRID| Group size                                                           1

 RS_GRID| Information for grid number                                          5
 RS_GRID|   Bounds   1             -6       5                Points:          12
 RS_GRID|   Bounds   2             -6       5                Points:          12
 RS_GRID|   Bounds   3            -18      17                Points:          36
 RS_GRID| Real space fully replicated
 RS_GRID| Group size                                                           1

 Spin 1

 Number of electrons:                                                        296.400
 Number of occupied orbitals:                                                297
 Number of molecular orbitals:                                               832

 Spin 2

 Number of electrons:                                                        279.600
 Number of occupied orbitals:                                                280
 Number of molecular orbitals:                                               832

 Number of orbital functions:                                                832
 Number of independent orbital functions:                                    832

 Extrapolation method: initial_guess

 Atomic guess: The first density matrix is obtained in terms of atomic orbitals
               and electronic configurations assigned to each atomic kind

 Guess for atomic kind: Ni_i

 Electronic structure
    Total number of core electrons                                         10.00
    Total number of valence electrons                                      18.00
    Total number of electrons                                              28.00
    Multiplicity                                                         doublet
    Alpha Electrons
    S   [  1.00  1.00] 1.00  1.00
    P   [  3.00] 3.00
    D      4.25
    Beta Electrons
    S   [  1.00  1.00] 1.00  1.00
    P   [  3.00] 3.00
    D      3.75


 *******************************************************************************
                  Iteration          Convergence                     Energy [au]
 *******************************************************************************
                          1         1.51687                    -167.065012761055
                          2         14.9817                    -156.620431300845
                          3         2.25575                    -168.317311438693
                          4        0.189210                    -168.607926092750
                          5        0.708658E-01                -168.610773319290
                          6        0.122256E-01                -168.611238205502
                          7        0.598421E-02                -168.611272268995
                          8        0.528277E-02                -168.611272438110
                          9        0.104644E-02                -168.611275321653
                         10        0.260234E-02                -168.611274926630
                         11        0.975322E-03                -168.611275328217
                         12        0.161067E-03                -168.611275447773
                         13        0.147413E-03                -168.611275446839
                         14        0.115114E-03                -168.611275449434
                         15        0.167217E-03                -168.611275445436
                         16        0.255374E-04                -168.611275450531
                         17        0.418369E-04                -168.611275450414
                         18        0.393709E-04                -168.611275450477
                         19        0.239931E-04                -168.611275450542
                         20        0.173885E-04                -168.611275450557
                         21        0.851368E-05                -168.611275450578
                         22        0.849928E-05                -168.611275450580
                         23        0.544937E-05                -168.611275450584
                         24        0.540003E-05                -168.611275450586
                         25        0.613371E-05                -168.611275450584
                         26        0.311593E-06                -168.611275450588

 Energy components [Hartree]           Total Energy ::         -168.611275450588
                                        Band Energy ::          -26.568680144499
                                     Kinetic Energy ::           97.303659243130
                                   Potential Energy ::         -265.914934693718
                                      Virial (-V/T) ::            2.732835915546
                                        Core Energy ::         -299.566189183323
                                          XC Energy ::          -16.224592878785
                                     Coulomb Energy ::          147.179506611520
                       Total Pseudopotential Energy ::         -396.956189041778
                       Local Pseudopotential Energy ::         -362.645043136649
                    Nonlocal Pseudopotential Energy ::          -34.311145905129
                                        Confinement ::            0.863406153250

 Orbital energies  State     Spin  L     Occupation   Energy[a.u.]    Energy[eV]

                       1    alpha  0          1.000      -4.168335   -113.426177
                       2    alpha  0          1.000      -0.180730     -4.917906
                       1     beta  0          1.000      -4.145459   -112.803683
                       2     beta  0          1.000      -0.177117     -4.819606

                       1    alpha  1          3.000      -2.574525    -70.056390
                       1     beta  1          3.000      -2.552268    -69.450746

                       1    alpha  2          4.250      -0.323446     -8.801405
                       1     beta  2          3.750      -0.304537     -8.286881


 Total Electron Density at R=0:                                         0.030429

 Guess for atomic kind: Ni_b

 Electronic structure
    Total number of core electrons                                         10.00
    Total number of valence electrons                                      18.00
    Total number of electrons                                              28.00
    Multiplicity                                                         doublet
    Alpha Electrons
    S   [  1.00  1.00] 1.00  1.00
    P   [  3.00] 3.00
    D      4.28
    Beta Electrons
    S   [  1.00  1.00] 1.00  1.00
    P   [  3.00] 3.00
    D      3.73


 *******************************************************************************
                  Iteration          Convergence                     Energy [au]
 *******************************************************************************
                          1         1.51697                    -167.065540331739
                          2         15.0841                    -156.625294798054
                          3         2.27550                    -168.317759818583
                          4        0.193650                    -168.608358872736
                          5        0.735577E-01                -168.611232551634
                          6        0.131413E-01                -168.611726584386
                          7        0.528170E-02                -168.611769280855
                          8        0.481208E-02                -168.611769247575
                          9        0.903214E-03                -168.611771703528
                         10        0.246058E-02                -168.611771336689
                         11        0.101378E-02                -168.611771659882
                         12        0.166201E-03                -168.611771787925
                         13        0.173261E-03                -168.611771786904
                         14        0.131854E-03                -168.611771790294
                         15        0.178161E-03                -168.611771785930
                         16        0.476529E-04                -168.611771791826
                         17        0.612385E-04                -168.611771791796
                         18        0.407844E-04                -168.611771791943
                         19        0.246527E-04                -168.611771792012
                         20        0.100125E-04                -168.611771792051
                         21        0.681780E-05                -168.611771792056
                         22        0.633637E-05                -168.611771792057
                         23        0.392523E-05                -168.611771792060
                         24        0.372310E-05                -168.611771792062
                         25        0.246644E-05                -168.611771792063
                         26        0.538521E-06                -168.611771792063

 Energy components [Hartree]           Total Energy ::         -168.611771792063
                                        Band Energy ::          -26.568919478067
                                     Kinetic Energy ::           97.304331532534
                                   Potential Energy ::         -265.916103324596
                                      Virial (-V/T) ::            2.732829044056
                                        Core Energy ::         -299.566582704596
                                          XC Energy ::          -16.225161030373
                                     Coulomb Energy ::          147.179971942906
                       Total Pseudopotential Energy ::         -396.957254923057
                       Local Pseudopotential Energy ::         -362.645756808284
                    Nonlocal Pseudopotential Energy ::          -34.311498114773
                                        Confinement ::            0.863406859268

 Orbital energies  State     Spin  L     Occupation   Energy[a.u.]    Energy[eV]

                       1    alpha  0          1.000      -4.169426   -113.455853
                       2    alpha  0          1.000      -0.180906     -4.922694
                       1     beta  0          1.000      -4.144262   -112.771110
                       2     beta  0          1.000      -0.176932     -4.814559

                       1    alpha  1          3.000      -2.575586    -70.085265
                       1     beta  1          3.000      -2.551103    -69.419056

                       1    alpha  2          4.275      -0.324350     -8.826017
                       1     beta  2          3.725      -0.303551     -8.260044


 Total Electron Density at R=0:                                         0.030427

 Spin 1
 Re-scaling the density matrix to get the right number of electrons for spin 1
                  # Electrons              Trace(P)               Scaling factor
                        296.400             296.400                        1.000

 Spin 2
 Re-scaling the density matrix to get the right number of electrons for spin 2
                  # Electrons              Trace(P)               Scaling factor
                        279.600             279.600                        1.000


 SCF WAVEFUNCTION OPTIMIZATION

  Step     Update method      Time    Convergence         Total energy    Change
  ------------------------------------------------------------------------------
     1 NoMix/Diag. 0.80E-01    1.5     0.87421835     -5426.4156480355 -5.43E+03
     2 Broy./Diag. 0.80E-01    1.5     0.01581320     -5315.9606092671  1.10E+02
     3 Broy./Diag. 0.80E-01    1.5     0.05188694     -5352.2132757695 -3.63E+01
     4 Broy./Diag. 0.80E-01    1.5     0.00344835     -5416.0107422023 -6.38E+01
     5 Broy./Diag. 0.80E-01    1.5     0.02034768     -5414.5206255268  1.49E+00
     6 Broy./Diag. 0.80E-01    1.5     0.00249673     -5418.2175595591 -3.70E+00
     7 Broy./Diag. 0.80E-01    1.5     0.00877256     -5416.5112898255  1.71E+00
     8 Broy./Diag. 0.80E-01    1.5     0.00475697     -5417.5675196860 -1.06E+00
     9 Broy./Diag. 0.80E-01    1.5     0.00323138     -5417.1636735172  4.04E-01
    10 Broy./Diag. 0.80E-01    1.5     0.00333382     -5417.4111146515 -2.47E-01
    11 Broy./Diag. 0.80E-01    1.5     0.00305873     -5417.5045775256 -9.35E-02
    12 Broy./Diag. 0.80E-01    1.5     0.02190809     -5417.4758581169  2.87E-02
    13 Broy./Diag. 0.80E-01    1.5     0.00659410     -5417.1052398208  3.71E-01
    14 Broy./Diag. 0.80E-01    1.5     0.00487332     -5416.6060002588  4.99E-01
    15 Broy./Diag. 0.80E-01    1.5     0.01039843     -5416.6467031241 -4.07E-02
[...]
   128 Broy./Diag. 0.80E-01    1.5     0.01582607     -5417.9182594323  3.41E-01
   129 Broy./Diag. 0.80E-01    1.5     0.01513921     -5417.8454248781  7.28E-02
   130 Broy./Diag. 0.80E-01    1.5     0.05332761     -5417.8227895562  2.26E-02
   131 Broy./Diag. 0.80E-01    1.5     0.02257687     -5417.8659220268 -4.31E-02
   132 Broy./Diag. 0.80E-01    1.5     0.10014950     -5417.8716027236 -5.68E-03
   133 Broy./Diag. 0.80E-01    1.5     0.02134285     -5417.5851544735  2.86E-01
   134 Broy./Diag. 0.80E-01    1.5     0.02741088     -5417.5666825683  1.85E-02
   135 Broy./Diag. 0.80E-01    1.5     0.02208760     -5418.6035946012 -1.04E+00
   136 Broy./Diag. 0.80E-01    1.5     0.04250282     -5417.3934319463  1.21E+00
   137 Broy./Diag. 0.80E-01    1.5     0.00315198     -5417.7416182306 -3.48E-01
   138 Broy./Diag. 0.80E-01    1.5     0.02684813     -5417.7304888079  1.11E-02
   139 Broy./Diag. 0.80E-01    1.5     0.02007992     -5417.9851016277 -2.55E-01
   140 Broy./Diag. 0.80E-01    1.5     0.00266966     -5417.9598111302  2.53E-02
   141 Broy./Diag. 0.80E-01    1.5     0.01414426     -5418.1911723725 -2.31E-01
   142 Broy./Diag. 0.80E-01    1.5     0.00712410     -5418.4679720439 -2.77E-01
   143 Broy./Diag. 0.80E-01    1.5     0.00417916     -5418.5304598159 -6.25E-02
   144 Broy./Diag. 0.80E-01    1.5     0.00606434     -5418.7562525885 -2.26E-01
   145 Broy./Diag. 0.80E-01    1.5     0.02254586     -5417.9190286116  8.37E-01
   146 Broy./Diag. 0.80E-01    1.5     0.03560815     -5418.2631831058 -3.44E-01
   147 Broy./Diag. 0.80E-01    1.5     0.01356724     -5418.6488323651 -3.86E-01
   148 Broy./Diag. 0.80E-01    1.5     0.06683279     -5418.7219544567 -7.31E-02
   149 Broy./Diag. 0.80E-01    1.5     0.01382400     -5418.1436920035  5.78E-01
   150 Broy./Diag. 0.80E-01    1.5     0.01412967     -5418.3500092769 -2.06E-01
   151 Broy./Diag. 0.80E-01    1.5     0.02646984     -5418.5351334113 -1.85E-01
   152 Broy./Diag. 0.80E-01    1.5     0.02136598     -5418.1924450214  3.43E-01
   153 Broy./Diag. 0.80E-01    1.5     0.00952971     -5418.1140741816  7.84E-02
   154 Broy./Diag. 0.80E-01    1.5     0.01527360     -5417.9813726845  1.33E-01
   155 Broy./Diag. 0.80E-01    1.5     0.05381080     -5417.9298868575  5.15E-02
   156 Broy./Diag. 0.80E-01    1.5     0.01204713     -5418.0722688837 -1.42E-01
   157 Broy./Diag. 0.80E-01    1.5     0.00616072     -5417.8226030037  2.50E-01
   158 Broy./Diag. 0.80E-01    1.5     0.01016871     -5417.8367002199 -1.41E-02
   159 Broy./Diag. 0.80E-01    1.5     0.01220656     -5417.6928068405  1.44E-01
   160 Broy./Diag. 0.80E-01    1.5     0.01564637     -5417.8410995558 -1.48E-01
   161 Broy./Diag. 0.80E-01    1.5     0.00818000     -5417.6850482824  1.56E-01
   162 Broy./Diag. 0.80E-01    1.5     0.00408457     -5417.9449972494 -2.60E-01
   163 Broy./Diag. 0.80E-01    1.5     0.00198681     -5418.1117326124 -1.67E-01
   164 Broy./Diag. 0.80E-01    1.5     0.01049615     -5418.1404517342 -2.87E-02
   165 Broy./Diag. 0.80E-01    1.5     0.04618204     -5418.3822900735 -2.42E-01
   166 Broy./Diag. 0.80E-01    1.5     0.00965958     -5418.0327815925  3.50E-01
   167 Broy./Diag. 0.80E-01    1.5     0.01175327     -5417.9690321344  6.37E-02
   168 Broy./Diag. 0.80E-01    1.5     0.00405931     -5418.1626118804 -1.94E-01
   169 Broy./Diag. 0.80E-01    1.5     0.02020396     -5418.2366103304 -7.40E-02
   170 Broy./Diag. 0.80E-01    1.5     0.02243638     -5417.8369802784  4.00E-01
   171 Broy./Diag. 0.80E-01    1.5     0.02048706     -5417.7238764370  1.13E-01
   172 Broy./Diag. 0.80E-01    1.5     0.00217674     -5417.8695939955 -1.46E-01
   173 Broy./Diag. 0.80E-01    1.5     0.00756873     -5417.9978441728 -1.28E-01
   174 Broy./Diag. 0.80E-01    1.5     0.02662538     -5418.0378387376 -4.00E-02
   175 Broy./Diag. 0.80E-01    1.5     0.01415191     -5417.4535029607  5.84E-01
   176 Broy./Diag. 0.80E-01    1.5     0.00461689     -5417.7692761341 -3.16E-01
   177 Broy./Diag. 0.80E-01    1.5     0.01377083     -5418.1255880101 -3.56E-01
   178 Broy./Diag. 0.80E-01    1.5     0.00773361     -5417.9370694243  1.89E-01
   179 Broy./Diag. 0.80E-01    1.5     0.00716360     -5418.0202930965 -8.32E-02
   180 Broy./Diag. 0.80E-01    1.5     0.00811897     -5418.0199485600  3.45E-04
   181 Broy./Diag. 0.80E-01    1.5     0.01094422     -5418.1123205911 -9.24E-02
   182 Broy./Diag. 0.80E-01    1.5     0.02616901     -5418.0098359444  1.02E-01
   183 Broy./Diag. 0.80E-01    1.5     0.01033030     -5417.8697963745  1.40E-01
   184 Broy./Diag. 0.80E-01    1.5     0.00853494     -5417.9523545946 -8.26E-02
   185 Broy./Diag. 0.80E-01    1.5     0.01383968     -5417.9234003038  2.90E-02
   186 Broy./Diag. 0.80E-01    1.5     0.01604714     -5417.9471653106 -2.38E-02
   187 Broy./Diag. 0.80E-01    1.5     0.00668520     -5418.6017635114 -6.55E-01
   188 Broy./Diag. 0.80E-01    1.5     0.00996165     -5418.7534204222 -1.52E-01
   189 Broy./Diag. 0.80E-01    1.5     0.02171013     -5418.8782853772 -1.25E-01
   190 Broy./Diag. 0.80E-01    1.5     0.01553906     -5418.1446332197  7.34E-01
   191 Broy./Diag. 0.80E-01    1.5     0.01695940     -5417.8598230087  2.85E-01
   192 Broy./Diag. 0.80E-01    1.5     0.02701118     -5417.8575346026  2.29E-03
   193 Broy./Diag. 0.80E-01    1.5     0.00677710     -5417.8903935963 -3.29E-02
   194 Broy./Diag. 0.80E-01    1.5     0.00384515     -5417.8543494061  3.60E-02
   195 Broy./Diag. 0.80E-01    1.5     0.01707618     -5417.8109712403  4.34E-02
   196 Broy./Diag. 0.80E-01    1.5     0.01382600     -5417.8725605188 -6.16E-02
   197 Broy./Diag. 0.80E-01    1.5     0.03083030     -5417.8987261391 -2.62E-02
   198 Broy./Diag. 0.80E-01    1.5     0.03360991     -5417.8856039667  1.31E-02
   199 Broy./Diag. 0.80E-01    1.5     0.01350032     -5417.8433509444  4.23E-02
   200 Broy./Diag. 0.80E-01    1.5     0.00662336     -5417.9754218363 -1.32E-01
   201 Broy./Diag. 0.80E-01    1.5     0.02440417     -5418.0054833819 -3.01E-02
   202 Broy./Diag. 0.80E-01    1.5     0.01546549     -5417.8205664478  1.85E-01
   203 Broy./Diag. 0.80E-01    1.5     0.01939851     -5417.7211639205  9.94E-02
   204 Broy./Diag. 0.80E-01    1.5     0.01104826     -5417.5283235120  1.93E-01
   205 Broy./Diag. 0.80E-01    1.5     0.01556956     -5417.6099640299 -8.16E-02
   206 Broy./Diag. 0.80E-01    1.5     0.00701052     -5417.6755805672 -6.56E-02
   207 Broy./Diag. 0.80E-01    1.5     0.01265618     -5417.4828104767  1.93E-01
   208 Broy./Diag. 0.80E-01    1.5     0.00843745     -5417.5130084061 -3.02E-02
   209 Broy./Diag. 0.80E-01    1.5     0.00319158     -5417.6433744743 -1.30E-01
   210 Broy./Diag. 0.80E-01    1.5     0.00875879     -5417.5466961030  9.67E-02
   211 Broy./Diag. 0.80E-01    1.5     0.00754543     -5417.3198947086  2.27E-01
   212 Broy./Diag. 0.80E-01    1.5     0.01912479     -5417.3761734104 -5.63E-02
   213 Broy./Diag. 0.80E-01    1.5     0.00743138     -5417.7191137970 -3.43E-01
   214 Broy./Diag. 0.80E-01    1.5     0.03645699     -5417.8903967572 -1.71E-01
   215 Broy./Diag. 0.80E-01    1.5     0.01031472     -5417.7692942371  1.21E-01
   216 Broy./Diag. 0.80E-01    1.5     0.00622011     -5417.9174920355 -1.48E-01
   217 Broy./Diag. 0.80E-01    1.5     0.01712161     -5417.9929354118 -7.54E-02
   218 Broy./Diag. 0.80E-01    1.5     0.02394315     -5416.8404682196  1.15E+00
   219 Broy./Diag. 0.80E-01    1.5     0.01028413     -5417.5896432884 -7.49E-01
   220 Broy./Diag. 0.80E-01    1.5     0.00512624     -5417.8847469408 -2.95E-01
   221 Broy./Diag. 0.80E-01    1.5     0.01596272     -5417.9392527820 -5.45E-02
   222 Broy./Diag. 0.80E-01    1.5     0.02607221     -5417.8162153483  1.23E-01
   223 Broy./Diag. 0.80E-01    1.5     0.00481310     -5418.2849225445 -4.69E-01
   224 Broy./Diag. 0.80E-01    1.5     0.07896984     -5418.5554961918 -2.71E-01
   225 Broy./Diag. 0.80E-01    1.5     0.07929368     -5417.5383163446  1.02E+00
   226 Broy./Diag. 0.80E-01    1.5     0.00710782     -5417.4147816298  1.24E-01
   227 Broy./Diag. 0.80E-01    1.5     0.00776103     -5417.7572903921 -3.43E-01
   228 Broy./Diag. 0.80E-01    1.5     0.03397696     -5417.8482396675 -9.09E-02
   229 Broy./Diag. 0.80E-01    1.5     0.02332221     -5417.2412104639  6.07E-01
   230 Broy./Diag. 0.80E-01    1.5     0.03695516     -5417.4725491355 -2.31E-01
   231 Broy./Diag. 0.80E-01    1.5     0.01095107     -5418.3121721486 -8.40E-01
   232 Broy./Diag. 0.80E-01    1.6     0.03474545     -5418.4619019025 -1.50E-01
   233 Broy./Diag. 0.80E-01    1.5     0.06587571     -5417.4565888994  1.01E+00
   234 Broy./Diag. 0.80E-01    1.5     0.01974724     -5416.7875107936  6.69E-01
   235 Broy./Diag. 0.80E-01    1.5     0.05719118     -5417.4024508728 -6.15E-01
   236 Broy./Diag. 0.80E-01    1.5     0.11074636     -5418.7414991197 -1.34E+00
   237 Broy./Diag. 0.80E-01    1.5     0.02129889     -5417.7543307379  9.87E-01
   238 Broy./Diag. 0.80E-01    1.5     0.01408433     -5417.6832389094  7.11E-02
   239 Broy./Diag. 0.80E-01    1.5     0.01586424     -5417.9545003014 -2.71E-01
   240 Broy./Diag. 0.80E-01    1.5     0.02367574     -5417.9540075130  4.93E-04
   241 Broy./Diag. 0.80E-01    1.5     0.02575872     -5417.6314768334  3.23E-01
   242 Broy./Diag. 0.80E-01    1.5     0.03368332     -5417.6466897525 -1.52E-02
   243 Broy./Diag. 0.80E-01    1.5     0.01600240     -5417.8645890571 -2.18E-01
   244 Broy./Diag. 0.80E-01    1.5     0.02819823     -5418.0065105477 -1.42E-01
   245 Broy./Diag. 0.80E-01    1.5     0.01790265     -5417.7288949746  2.78E-01
   246 Broy./Diag. 0.80E-01    1.5     0.01894425     -5417.8807051570 -1.52E-01
   247 Broy./Diag. 0.80E-01    1.5     0.01028971     -5417.2719336664  6.09E-01
   248 Broy./Diag. 0.80E-01    1.5     0.02087566     -5417.1202943702  1.52E-01
   249 Broy./Diag. 0.80E-01    1.5     0.01415151     -5417.5628416355 -4.43E-01
   250 Broy./Diag. 0.80E-01    1.5     0.01492608     -5418.1316822555 -5.69E-01
   251 Broy./Diag. 0.80E-01    1.5     0.01423261     -5418.1858395588 -5.42E-02
   252 Broy./Diag. 0.80E-01    1.5     0.02891374     -5418.2609727172 -7.51E-02
   253 Broy./Diag. 0.80E-01    1.5     0.02355069     -5418.3166101970 -5.56E-02
   254 Broy./Diag. 0.80E-01    1.5     0.02318294     -5418.2719438076  4.47E-02
   255 Broy./Diag. 0.80E-01    1.5     0.01742079     -5417.3520908071  9.20E-01
   256 Broy./Diag. 0.80E-01    1.5     0.01072170     -5417.4573461544 -1.05E-01
   257 Broy./Diag. 0.80E-01    1.5     0.05285484     -5416.9583713009  4.99E-01
   258 Broy./Diag. 0.80E-01    1.5     0.03293158     -5416.9506692884  7.70E-03
   259 Broy./Diag. 0.80E-01    1.5     0.00693832     -5416.9869488785 -3.63E-02
   260 Broy./Diag. 0.80E-01    1.5     0.04276458     -5417.0057040444 -1.88E-02
   261 Broy./Diag. 0.80E-01    1.5     0.02543699     -5416.7423851579  2.63E-01
   262 Broy./Diag. 0.80E-01    1.5     0.00708814     -5416.9216305847 -1.79E-01
   263 Broy./Diag. 0.80E-01    1.5     0.03196923     -5417.0503716921 -1.29E-01
   264 Broy./Diag. 0.80E-01    1.5     0.01813175     -5416.8345529728  2.16E-01
   265 Broy./Diag. 0.80E-01    1.5     0.03019500     -5417.1944815302 -3.60E-01
   266 Broy./Diag. 0.80E-01    1.5     0.02305877     -5417.0633656764  1.31E-01
   267 Broy./Diag. 0.80E-01    1.5     0.04043639     -5417.1912809275 -1.28E-01
   268 Broy./Diag. 0.80E-01    1.5     0.02358258     -5417.2846975102 -9.34E-02
   269 Broy./Diag. 0.80E-01    1.5     0.01636270     -5417.3870525383 -1.02E-01
   270 Broy./Diag. 0.80E-01    1.5     0.00875668     -5417.3503103190  3.67E-02
   271 Broy./Diag. 0.80E-01    1.5     0.07252197     -5417.7076833075 -3.57E-01
   272 Broy./Diag. 0.80E-01    1.5     0.02779943     -5418.3367787838 -6.29E-01
   273 Broy./Diag. 0.80E-01    1.5     0.00920360     -5418.1053600338  2.31E-01
   274 Broy./Diag. 0.80E-01    1.5     0.04593413     -5418.3165032216 -2.11E-01
   275 Broy./Diag. 0.80E-01    1.5     0.01147282     -5418.8582727146 -5.42E-01
   276 Broy./Diag. 0.80E-01    1.5     0.03348253     -5418.7590558366  9.92E-02
   277 Broy./Diag. 0.80E-01    1.5     0.00999657     -5419.0205159918 -2.61E-01
   278 Broy./Diag. 0.80E-01    1.5     0.02589273     -5419.6274200849 -6.07E-01
   279 Broy./Diag. 0.80E-01    1.5     0.03875489     -5418.4872225535  1.14E+00
   280 Broy./Diag. 0.80E-01    1.5     0.04465170     -5417.4908764034  9.96E-01
   281 Broy./Diag. 0.80E-01    1.5     0.02245343     -5418.9778352371 -1.49E+00
   282 Broy./Diag. 0.80E-01    1.5     0.03744334     -5419.3994071060 -4.22E-01
   283 Broy./Diag. 0.80E-01    1.5     0.01151989     -5418.8777402268  5.22E-01
   284 Broy./Diag. 0.80E-01    1.5     0.02859599     -5418.9388827461 -6.11E-02
   285 Broy./Diag. 0.80E-01    1.5     0.07008934     -5419.3713121834 -4.32E-01
   286 Broy./Diag. 0.80E-01    1.5     0.08583392     -5419.5049419403 -1.34E-01
   287 Broy./Diag. 0.80E-01    1.5     0.01113522     -5419.3039353710  2.01E-01
   288 Broy./Diag. 0.80E-01    1.5     0.02369797     -5418.6573102496  6.47E-01
   289 Broy./Diag. 0.80E-01    1.5     0.02866663     -5418.1499291661  5.07E-01
   290 Broy./Diag. 0.80E-01    1.5     0.03005330     -5418.4060958009 -2.56E-01
   291 Broy./Diag. 0.80E-01    1.5     0.03743686     -5418.6557197287 -2.50E-01
   292 Broy./Diag. 0.80E-01    1.5     0.04328005     -5418.6195224607  3.62E-02
   293 Broy./Diag. 0.80E-01    1.5     0.01843879     -5418.7251717909 -1.06E-01
   294 Broy./Diag. 0.80E-01    1.5     0.00344116     -5418.3715154344  3.54E-01
   295 Broy./Diag. 0.80E-01    1.5     0.07369598     -5418.3351802778  3.63E-02
   296 Broy./Diag. 0.80E-01    1.5     0.02202389     -5418.3921388927 -5.70E-02
   297 Broy./Diag. 0.80E-01    1.5     0.00699055     -5418.0056325102  3.87E-01
   298 Broy./Diag. 0.80E-01    1.5     0.01977628     -5417.9617471731  4.39E-02
   299 Broy./Diag. 0.80E-01    1.5     0.07091291     -5418.2331568675 -2.71E-01
   300 Broy./Diag. 0.80E-01    1.5     0.02720895     -5418.3977528187 -1.65E-01
   301 Broy./Diag. 0.80E-01    1.5     0.02197147     -5418.4171186982 -1.94E-02
   302 Broy./Diag. 0.80E-01    1.5     0.00411457     -5418.8812354814 -4.64E-01
   303 Broy./Diag. 0.80E-01    1.5     0.02126835     -5418.7827924693  9.84E-02
   304 Broy./Diag. 0.80E-01    1.5     0.03105270     -5418.6774241144  1.05E-01
   305 Broy./Diag. 0.80E-01    1.5     0.03283454     -5419.2237015679 -5.46E-01
   306 Broy./Diag. 0.80E-01    1.5     0.06167085     -5418.9034732039  3.20E-01
   307 Broy./Diag. 0.80E-01    1.5     0.02933422     -5418.9743433981 -7.09E-02
   308 Broy./Diag. 0.80E-01    1.5     0.03014017     -5418.6368404727  3.38E-01
   309 Broy./Diag. 0.80E-01    1.5     0.01449338     -5418.0933742071  5.43E-01
   310 Broy./Diag. 0.80E-01    1.5     0.03206350     -5417.6982620819  3.95E-01
   311 Broy./Diag. 0.80E-01    1.5     0.02608215     -5418.2470908391 -5.49E-01
   312 Broy./Diag. 0.80E-01    1.5     0.01212220     -5417.8678623817  3.79E-01
   313 Broy./Diag. 0.80E-01    1.5     0.01624108     -5417.6154299344  2.52E-01
   314 Broy./Diag. 0.80E-01    1.5     0.02002202     -5417.8087451529 -1.93E-01
   315 Broy./Diag. 0.80E-01    1.5     0.11199059     -5418.0077548962 -1.99E-01
   316 Broy./Diag. 0.80E-01    1.5     0.03572892     -5418.6207413374 -6.13E-01
   317 Broy./Diag. 0.80E-01    1.5     0.02738834     -5418.4467602395  1.74E-01
   318 Broy./Diag. 0.80E-01    1.5     0.02795298     -5419.0300378742 -5.83E-01
   319 Broy./Diag. 0.80E-01    1.5     0.01468256     -5420.0496071634 -1.02E+00
   320 Broy./Diag. 0.80E-01    1.5     0.02167525     -5420.7798332515 -7.30E-01
   321 Broy./Diag. 0.80E-01    1.5     0.03596439     -5420.8272981022 -4.75E-02
   322 Broy./Diag. 0.80E-01    1.5     0.03189017     -5420.9425076347 -1.15E-01
   323 Broy./Diag. 0.80E-01    1.5     0.06099633     -5419.5376079864  1.40E+00
   324 Broy./Diag. 0.80E-01    1.5     0.03421285     -5420.4388131524 -9.01E-01
   325 Broy./Diag. 0.80E-01    1.5     0.02647598     -5419.6533384202  7.85E-01
   326 Broy./Diag. 0.80E-01    1.5     0.03336813     -5420.1640498965 -5.11E-01
   327 Broy./Diag. 0.80E-01    1.5     0.01245099     -5420.2814375967 -1.17E-01
   328 Broy./Diag. 0.80E-01    1.5     0.06814504     -5419.7069137010  5.75E-01
   329 Broy./Diag. 0.80E-01    1.5     0.01367793     -5418.9432590933  7.64E-01
   330 Broy./Diag. 0.80E-01    1.5     0.02569909     -5418.7851906949  1.58E-01
   331 Broy./Diag. 0.80E-01    1.5     0.02523334     -5419.0923906581 -3.07E-01
   332 Broy./Diag. 0.80E-01    1.5     0.07277765     -5419.8336552578 -7.41E-01
   333 Broy./Diag. 0.80E-01    1.5     0.02819595     -5420.2883823579 -4.55E-01
   334 Broy./Diag. 0.80E-01    1.5     0.07726424     -5421.6388455601 -1.35E+00
   335 Broy./Diag. 0.80E-01    1.5     0.09968066     -5421.2108725034  4.28E-01
   336 Broy./Diag. 0.80E-01    1.5     0.02697486     -5418.4158082667  2.80E+00
   337 Broy./Diag. 0.80E-01    1.5     0.02509488     -5418.7229697244 -3.07E-01
   338 Broy./Diag. 0.80E-01    1.5     0.01713648     -5419.1881469949 -4.65E-01
   339 Broy./Diag. 0.80E-01    1.5     0.03582628     -5419.5376096363 -3.49E-01
   340 Broy./Diag. 0.80E-01    1.5     0.03305408     -5420.1278895039 -5.90E-01
   341 Broy./Diag. 0.80E-01    1.5     0.02589316     -5419.6688120800  4.59E-01
   342 Broy./Diag. 0.80E-01    1.5     0.00958777     -5418.8144719406  8.54E-01
   343 Broy./Diag. 0.80E-01    1.5     0.01473690     -5419.1303159411 -3.16E-01
   344 Broy./Diag. 0.80E-01    1.5     0.01336062     -5419.0823382763  4.80E-02
   345 Broy./Diag. 0.80E-01    1.5     0.13904018     -5419.4730497683 -3.91E-01
   346 Broy./Diag. 0.80E-01    1.5     0.01244494     -5412.0233785553  7.45E+00
   347 Broy./Diag. 0.80E-01    1.5     0.03810313     -5413.5980893358 -1.57E+00
   348 Broy./Diag. 0.80E-01    1.5     0.01174120     -5414.5250266324 -9.27E-01
   349 Broy./Diag. 0.80E-01    1.5     0.04465929     -5415.1870581721 -6.62E-01
   350 Broy./Diag. 0.80E-01    1.5     0.15571170     -5415.9435174667 -7.56E-01
   351 Broy./Diag. 0.80E-01    1.5     0.06356215     -5418.9883227781 -3.04E+00
   352 Broy./Diag. 0.80E-01    1.5     0.10336347     -5418.4188544180  5.69E-01
   353 Broy./Diag. 0.80E-01    1.5     0.09178701     -5419.2267625859 -8.08E-01
   354 Broy./Diag. 0.80E-01    1.5     0.00999238     -5420.3060686914 -1.08E+00
   355 Broy./Diag. 0.80E-01    1.5     0.03310064     -5420.1555135564  1.51E-01
   356 Broy./Diag. 0.80E-01    1.5     0.04248695     -5420.1162635033  3.93E-02
   357 Broy./Diag. 0.80E-01    1.5     0.06443274     -5419.7241247394  3.92E-01
   358 Broy./Diag. 0.80E-01    1.5     0.09242006     -5420.3527969870 -6.29E-01
   359 Broy./Diag. 0.80E-01    1.5     0.01491813     -5422.0513686945 -1.70E+00
   360 Broy./Diag. 0.80E-01    1.5     0.13998527     -5421.4519104474  5.99E-01
   361 Broy./Diag. 0.80E-01    1.5     0.06473609     -5421.0989152150  3.53E-01
   362 Broy./Diag. 0.80E-01    1.5     0.04516987     -5420.6259612458  4.73E-01
   363 Broy./Diag. 0.80E-01    1.5     0.02977825     -5419.3680121167  1.26E+00
   364 Broy./Diag. 0.80E-01    1.5     0.05109783     -5421.1539683191 -1.79E+00
   365 Broy./Diag. 0.80E-01    1.5     0.07773134     -5419.1990145623  1.95E+00
   366 Broy./Diag. 0.80E-01    1.5     0.09164599     -5420.2543346719 -1.06E+00
   367 Broy./Diag. 0.80E-01    1.5     0.06367431     -5419.9362033922  3.18E-01
   368 Broy./Diag. 0.80E-01    1.5     0.05964162     -5420.0883750292 -1.52E-01
   369 Broy./Diag. 0.80E-01    1.5     0.07656770     -5417.2516560826  2.84E+00
   370 Broy./Diag. 0.80E-01    1.5     0.04428215     -5416.8892125532  3.62E-01
   371 Broy./Diag. 0.80E-01    1.5     0.10530162     -5416.7185097296  1.71E-01
   372 Broy./Diag. 0.80E-01    1.5     0.00315512     -5420.2407280524 -3.52E+00
   373 Broy./Diag. 0.80E-01    1.5     0.08219535     -5420.3148938052 -7.42E-02
