 DBCSR| CPU Multiplication driver                                           XSMM (U)
 DBCSR| Multrec recursion limit                                              512 (U)
 DBCSR| Multiplication stack size                                           1000 (D)
 DBCSR| Maximum elements for images                                    UNLIMITED (U)
 DBCSR| Multiplicative factor virtual images                                   1 (U)
 DBCSR| Use multiplication densification                                       T (D)
 DBCSR| Multiplication size stacks                                             3 (U)
 DBCSR| Use memory pool for CPU allocation                                     F (U)
 DBCSR| Number of 3D layers                                               SINGLE (U)
 DBCSR| Use MPI memory allocation                                              F (U)
 DBCSR| Use RMA algorithm                                                      F (U)
 DBCSR| Use Communication thread                                               T (U)
 DBCSR| Communication thread load                                             87 (D)
 DBCSR| MPI: My process id                                                     0
 DBCSR| MPI: Number of processes                                             128
 DBCSR| OMP: Current number of threads                                         1
 DBCSR| OMP: Max number of threads                                             1
 DBCSR| Split modifier for TAS multiplication algorithm                  1.0E+00 (U)


  **** **** ******  **  PROGRAM STARTED AT               2023-02-15 11:51:33.917
 ***** ** ***  *** **   PROGRAM STARTED ON                             nid002508
 **    ****   ******    PROGRAM STARTED BY                                cahart
 ***** **    ** ** **   PROGRAM PROCESS ID                                102568
  **** **  *******  **  PROGRAM STARTED IN /mnt/lustre/a2fs-work2/work/e05/e05/c
                                           ahart/postdoc/masters/ni/archer2/slab
                                           /optimise/magnetisation/scf_1e-4_temp
                                           -2000_mos-1000_alpha-0.08_beta-1.5_pe
                                           riodic-xyz/search/0.80_0.5

 CP2K| version string:                 CP2K version 2023.1 (Development Version)
 CP2K| source code revision number:                                  git:964cd58
 CP2K| cp2kflags: omp libint fftw3 libxc elpa parallel scalapack xsmm plumed2 mk
 CP2K|            l
 CP2K| is freely available from                            https://www.cp2k.org/
 CP2K| Program compiled at                          Mon 13 Feb 17:05:14 GMT 2023
 CP2K| Program compiled on                                                  ln01
 CP2K| Program compiled for                                              ARCHER2
 CP2K| Data directory path    /work/e05/e05/cahart/cp2k/cp2k-2023.1/cp2k-2023.1-
 CP2K| Input file name                                                  cp2k.inp

 GLOBAL| Force Environment number                                              1
 GLOBAL| Basis set file name                                        BASIS_MOLOPT
 GLOBAL| Potential file name                                      GTH_POTENTIALS
 GLOBAL| MM Potential file name                                     MM_POTENTIAL
 GLOBAL| Coordinate file name                                      __STD_INPUT__
 GLOBAL| Method name                                                        CP2K
 GLOBAL| Project name                                                    Ni_bulk
 GLOBAL| Run type                                                         ENERGY
 GLOBAL| FFT library                                                       FFTW3
 GLOBAL| Diagonalization library                                            ELPA
 GLOBAL| DGEMM library                                                      BLAS
 GLOBAL| Minimum number of eigenvectors for ELPA usage                        16
 GLOBAL| Orthonormality check for eigenvectors                          DISABLED
 GLOBAL| Matrix multiplication library                                 ScaLAPACK
 GLOBAL| All-to-all communication in single precision                          F
 GLOBAL| FFTs using library dependent lengths                                  F
 GLOBAL| Grid backend                                                       AUTO
 GLOBAL| Global print level                                               MEDIUM
 GLOBAL| MPI I/O enabled                                                       T
 GLOBAL| Total number of message passing processes                           128
 GLOBAL| Number of threads for this process                                    1
 GLOBAL| This output is from process                                           0
 GLOBAL| Stack size for threads created by OpenMP (OMP_STACKSIZE)        default
 GLOBAL| CPU model name                          AMD EPYC 7742 64-Core Processor
 GLOBAL| CPUID                                                              1002

 MEMORY| system memory details [Kb]
 MEMORY|                        rank 0           min           max       average
 MEMORY| MemTotal            263528084     263528084     263528084     263528084
 MEMORY| MemFree             238215688     238215688     238215688     238215688
 MEMORY| Buffers                 39400         39400         39400         39400
 MEMORY| Cached                 949020        949020        949020        949020
 MEMORY| Slab                  1650720       1650720       1650720       1650720
 MEMORY| SReclaimable           102980        102980        102980        102980
 MEMORY| MemLikelyFree       239307088     239307088     239307088     239307088


 *** Fundamental physical constants (SI units) ***

 *** Literature: B. J. Mohr and B. N. Taylor,
 ***             CODATA recommended values of the fundamental physical
 ***             constants: 2006, Web Version 5.1
 ***             http://physics.nist.gov/constants

 Speed of light in vacuum [m/s]                             2.99792458000000E+08
 Magnetic constant or permeability of vacuum [N/A**2]       1.25663706143592E-06
 Electric constant or permittivity of vacuum [F/m]          8.85418781762039E-12
 Planck constant (h) [J*s]                                  6.62606896000000E-34
 Planck constant (h-bar) [J*s]                              1.05457162825177E-34
 Elementary charge [C]                                      1.60217648700000E-19
 Electron mass [kg]                                         9.10938215000000E-31
 Electron g factor [ ]                                     -2.00231930436220E+00
 Proton mass [kg]                                           1.67262163700000E-27
 Fine-structure constant                                    7.29735253760000E-03
 Rydberg constant [1/m]                                     1.09737315685270E+07
 Avogadro constant [1/mol]                                  6.02214179000000E+23
 Boltzmann constant [J/K]                                   1.38065040000000E-23
 Atomic mass unit [kg]                                      1.66053878200000E-27
 Bohr radius [m]                                            5.29177208590000E-11

 *** Conversion factors ***

 [u] -> [a.u.]                                              1.82288848426455E+03
 [Angstrom] -> [Bohr] = [a.u.]                              1.88972613288564E+00
 [a.u.] = [Bohr] -> [Angstrom]                              5.29177208590000E-01
 [a.u.] -> [s]                                              2.41888432650478E-17
 [a.u.] -> [fs]                                             2.41888432650478E-02
 [a.u.] -> [J]                                              4.35974393937059E-18
 [a.u.] -> [N]                                              8.23872205491840E-08
 [a.u.] -> [K]                                              3.15774647902944E+05
 [a.u.] -> [kJ/mol]                                         2.62549961709828E+03
 [a.u.] -> [kcal/mol]                                       6.27509468713739E+02
 [a.u.] -> [Pa]                                             2.94210107994716E+13
 [a.u.] -> [bar]                                            2.94210107994716E+08
 [a.u.] -> [atm]                                            2.90362800883016E+08
 [a.u.] -> [eV]                                             2.72113838565563E+01
 [a.u.] -> [Hz]                                             6.57968392072181E+15
 [a.u.] -> [1/cm] (wave numbers)                            2.19474631370540E+05
 [a.u./Bohr**2] -> [1/cm]                                   5.14048714338585E+03
 

 CELL_TOP| Volume [angstrom^3]:                                       983.249569
 CELL_TOP| Vector a [angstrom     7.012     0.000     0.000   |a| =     7.011596
 CELL_TOP| Vector b [angstrom     0.000     7.012     0.000   |b| =     7.011596
 CELL_TOP| Vector c [angstrom     0.000     0.000    20.000   |c| =    20.000000
 CELL_TOP| Angle (b,c), alpha [degree]:                                90.000000
 CELL_TOP| Angle (a,c), beta  [degree]:                                90.000000
 CELL_TOP| Angle (a,b), gamma [degree]:                                90.000000
 CELL_TOP| Numerically orthorhombic:                                         YES
 CELL_TOP| Periodicity                                                       XYZ

 GENERATE|  Preliminary Number of Bonds generated:                             0
 GENERATE|  Achieved consistency in connectivity generation.

 CELL| Volume [angstrom^3]:                                           983.249569
 CELL| Vector a [angstrom]:       7.012     0.000     0.000   |a| =     7.011596
 CELL| Vector b [angstrom]:       0.000     7.012     0.000   |b| =     7.011596
 CELL| Vector c [angstrom]:       0.000     0.000    20.000   |c| =    20.000000
 CELL| Angle (b,c), alpha [degree]:                                    90.000000
 CELL| Angle (a,c), beta  [degree]:                                    90.000000
 CELL| Angle (a,b), gamma [degree]:                                    90.000000
 CELL| Numerically orthorhombic:                                             YES
 CELL| Periodicity                                                           XYZ

 CELL_REF| Volume [angstrom^3]:                                       983.249569
 CELL_REF| Vector a [angstrom     7.012     0.000     0.000   |a| =     7.011596
 CELL_REF| Vector b [angstrom     0.000     7.012     0.000   |b| =     7.011596
 CELL_REF| Vector c [angstrom     0.000     0.000    20.000   |c| =    20.000000
 CELL_REF| Angle (b,c), alpha [degree]:                                90.000000
 CELL_REF| Angle (a,c), beta  [degree]:                                90.000000
 CELL_REF| Angle (a,b), gamma [degree]:                                90.000000
 CELL_REF| Numerically orthorhombic:                                         YES
 CELL_REF| Periodicity                                                       XYZ

 *** WARNING in cryssym.F:165 :: Symmetry library SPGLIB not available ***


 *******************************************************************************
                                    Kpoints
 *******************************************************************************
 BRILLOUIN| K-point scheme                                        Monkhorst-Pack
 BRILLOUIN| K-Point grid                                             4    4    1
 BRILLOUIN| Accuracy in Symmetry determination                      0.100000E-05
 BRILLOUIN| K-Point point group symmetrization                               OFF
 BRILLOUIN| Wavefunction type                                            COMPLEX
 BRILLOUIN| List of Kpoints [2 Pi/Bohr]                                        8
 BRILLOUIN| Number           Weight            X              Y              Z
 BRILLOUIN|     1           0.12500       -0.37500       -0.37500        0.00000
 BRILLOUIN|     2           0.12500       -0.37500       -0.12500        0.00000
 BRILLOUIN|     3           0.12500       -0.37500        0.12500        0.00000
 BRILLOUIN|     4           0.12500       -0.37500        0.37500        0.00000
 BRILLOUIN|     5           0.12500       -0.12500       -0.37500        0.00000
 BRILLOUIN|     6           0.12500       -0.12500       -0.12500        0.00000
 BRILLOUIN|     7           0.12500       -0.12500        0.12500        0.00000
 BRILLOUIN|     8           0.12500       -0.12500        0.37500        0.00000
 *******************************************************************************

 *******************************************************************************
 *******************************************************************************
 **                                                                           **
 **     #####                         ##              ##                      **
 **    ##   ##            ##          ##              ##                      **
 **   ##     ##                       ##            ######                    **
 **   ##     ##  ##   ##  ##   #####  ##  ##   ####   ##    #####    #####    **
 **   ##     ##  ##   ##  ##  ##      ## ##   ##      ##   ##   ##  ##   ##   **
 **   ##  ## ##  ##   ##  ##  ##      ####     ###    ##   ######   ######    **
 **    ##  ###   ##   ##  ##  ##      ## ##      ##   ##   ##       ##        **
 **     #######   #####   ##   #####  ##  ##  ####    ##    #####   ##        **
 **           ##                                                    ##        **
 **                                                                           **
 **                                                ... make the atoms dance   **
 **                                                                           **
 **            Copyright (C) by CP2K developers group (2000-2023)             **
 **                      J. Chem. Phys. 152, 194103 (2020)                    **
 **                                                                           **
 *******************************************************************************

 *** WARNING in qs_environment.F:1456 :: Number of electrons will be ***
 *** overwritten by NELEC_ALPHA and NELEC_BETA, multiplicity will be ***
 *** ignored.                                                        ***

 Number of electrons should be                                               576
 Sum of NELEC_ALPHA and NELEC_BETA is                                    576.000

 *** WARNING in qs_environment.F:1488 :: NELEC_ALPHA is not an integer, ***
 *** many features will not be supported.                               ***


 *** WARNING in qs_environment.F:1500 :: NELEC_BETA is not an integer, ***
 *** many features will not be supported.                              ***


 *** WARNING in qs_environment.F:1532 :: More ADDED_MOs requested for beta ***
 *** spin than available.                                                  ***


 *** WARNING in qs_environment.F:1548 :: More added MOs requested than     ***
 *** available. The full set of unoccupied MOs will be used. Use           ***
 *** 'ADDED_MOS -1' to always use all available MOs and to get rid of this ***
 *** warning.                                                              ***


 DFT| Spin unrestricted (spin-polarized) Kohn-Sham calculation               UKS
 DFT| Multiplicity                                                             1
 DFT| Number of spin states                                                    2
 DFT| Charge                                                                   0
 DFT| Self-interaction correction (SIC)                                       NO
 DFT| Cutoffs: density                                              1.000000E-10
 DFT|          gradient                                             1.000000E-10
 DFT|          tau                                                  1.000000E-10
 DFT|          cutoff_smoothing_range                               0.000000E+00
 DFT| XC density smoothing                                                  NONE
 DFT| XC derivatives                                                          PW

 FUNCTIONAL| PBE:
 FUNCTIONAL| J.P.Perdew, K.Burke, M.Ernzerhof, Phys. Rev. Letter, vol. 77, n 18,
 FUNCTIONAL|  pp. 3865-3868, (1996){spin polarized}                             

 vdW POTENTIAL|                                                   Pair Potential
 vdW POTENTIAL|          DFT-D3 (Version 3.1)
 vdW POTENTIAL|          Potential Form: S. Grimme et al, JCP 132: 154104 (2010)
 vdW POTENTIAL|          Zero Damping
 vdW POTENTIAL|          Cutoff Radius [Bohr]:                             20.00
 vdW POTENTIAL|          s6 Scaling Factor:                               1.0000
 vdW POTENTIAL|          sr6 Scaling Factor:                              1.2170
 vdW POTENTIAL|          s8 Scaling Factor:                               0.7220
 vdW POTENTIAL|          Cutoff for CN calculation:                   0.1000E-05

 QS| Method:                                                                 GPW
 QS| Density plane wave grid type                        NON-SPHERICAL FULLSPACE
 QS| Number of grid levels:                                                    5
 QS| Density cutoff [a.u.]:                                                300.0
 QS| Multi grid cutoff [a.u.]: 1) grid level                               300.0
 QS|                           2) grid level                               100.0
 QS|                           3) grid level                                33.3
 QS|                           4) grid level                                11.1
 QS|                           5) grid level                                 3.7
 QS| Grid level progression factor:                                          3.0
 QS| Relative density cutoff [a.u.]:                                        30.0
 QS| Interaction thresholds: eps_pgf_orb:                                1.0E-06
 QS|                         eps_filter_matrix:                          0.0E+00
 QS|                         eps_core_charge:                            1.0E-14
 QS|                         eps_rho_gspace:                             1.0E-12
 QS|                         eps_rho_rspace:                             1.0E-12
 QS|                         eps_gvg_rspace:                             1.0E-06
 QS|                         eps_ppl:                                    1.0E-02
 QS|                         eps_ppnl:                                   1.0E-08


 ATOMIC KIND INFORMATION

  1. Atomic kind: Ni_i                                  Number of atoms:      16

     Orbital Basis Set                                        DZVP-MOLOPT-SR-GTH

       Number of orbital shell sets:                                           1
       Number of orbital shells:                                               8
       Number of primitive Cartesian functions:                                6
       Number of Cartesian basis functions:                                   31
       Number of spherical basis functions:                                   26
       Norm type:                                                              2

       Normalised Cartesian orbitals:

                        Set   Shell   Orbital            Exponent    Coefficient

                          1       1    2s               10.077428      -0.684558
                                                         5.847736      -0.844524
                                                         2.494033       1.088856
                                                         0.988355       0.395503
                                                         0.344978       0.010224
                                                         0.099466      -0.003250

                          1       2    3s               10.077428       0.096747
                                                         5.847736       0.162504
                                                         2.494033      -0.297192
                                                         0.988355      -0.319752
                                                         0.344978       0.088318
                                                         0.099466       0.118587

                          1       3    4s               10.077428       0.036437
                                                         5.847736      -0.381480
                                                         2.494033       0.003759
                                                         0.988355      -1.048256
                                                         0.344978       0.855825
                                                         0.099466      -0.176350

                          1       4    3px              10.077428      -3.133913
                                                         5.847736       3.027656
                                                         2.494033       2.353227
                                                         0.988355       0.554184
                                                         0.344978       0.019462
                                                         0.099466      -0.000291
                          1       4    3py              10.077428      -3.133913
                                                         5.847736       3.027656
                                                         2.494033       2.353227
                                                         0.988355       0.554184
                                                         0.344978       0.019462
                                                         0.099466      -0.000291
                          1       4    3pz              10.077428      -3.133913
                                                         5.847736       3.027656
                                                         2.494033       2.353227
                                                         0.988355       0.554184
                                                         0.344978       0.019462
                                                         0.099466      -0.000291

                          1       5    4px              10.077428      -0.112729
                                                         5.847736      -0.114008
                                                         2.494033      -0.347303
                                                         0.988355      -0.110323
                                                         0.344978       0.154096
                                                         0.099466       0.058386
                          1       5    4py              10.077428      -0.112729
                                                         5.847736      -0.114008
                                                         2.494033      -0.347303
                                                         0.988355      -0.110323
                                                         0.344978       0.154096
                                                         0.099466       0.058386
                          1       5    4pz              10.077428      -0.112729
                                                         5.847736      -0.114008
                                                         2.494033      -0.347303
                                                         0.988355      -0.110323
                                                         0.344978       0.154096
                                                         0.099466       0.058386

                          1       6    4dx2             10.077428       8.232726
                                                         5.847736       9.105758
                                                         2.494033       2.849835
                                                         0.988355       0.554319
                                                         0.344978       0.067245
                                                         0.099466       0.001940
                          1       6    4dxy             10.077428      14.259500
                                                         5.847736      15.771636
                                                         2.494033       4.936060
                                                         0.988355       0.960109
                                                         0.344978       0.116472
                                                         0.099466       0.003360
                          1       6    4dxz             10.077428      14.259500
                                                         5.847736      15.771636
                                                         2.494033       4.936060
                                                         0.988355       0.960109
                                                         0.344978       0.116472
                                                         0.099466       0.003360
                          1       6    4dy2             10.077428       8.232726
                                                         5.847736       9.105758
                                                         2.494033       2.849835
                                                         0.988355       0.554319
                                                         0.344978       0.067245
                                                         0.099466       0.001940
                          1       6    4dyz             10.077428      14.259500
                                                         5.847736      15.771636
                                                         2.494033       4.936060
                                                         0.988355       0.960109
                                                         0.344978       0.116472
                                                         0.099466       0.003360
                          1       6    4dz2             10.077428       8.232726
                                                         5.847736       9.105758
                                                         2.494033       2.849835
                                                         0.988355       0.554319
                                                         0.344978       0.067245
                                                         0.099466       0.001940

                          1       7    5dx2             10.077428      -2.715373
                                                         5.847736      -4.020640
                                                         2.494033      -1.397569
                                                         0.988355      -0.076143
                                                         0.344978       0.033435
                                                         0.099466       0.026032
                          1       7    5dxy             10.077428      -4.703164
                                                         5.847736      -6.963952
                                                         2.494033      -2.420661
                                                         0.988355      -0.131883
                                                         0.344978       0.057911
                                                         0.099466       0.045088
                          1       7    5dxz             10.077428      -4.703164
                                                         5.847736      -6.963952
                                                         2.494033      -2.420661
                                                         0.988355      -0.131883
                                                         0.344978       0.057911
                                                         0.099466       0.045088
                          1       7    5dy2             10.077428      -2.715373
                                                         5.847736      -4.020640
                                                         2.494033      -1.397569
                                                         0.988355      -0.076143
                                                         0.344978       0.033435
                                                         0.099466       0.026032
                          1       7    5dyz             10.077428      -4.703164
                                                         5.847736      -6.963952
                                                         2.494033      -2.420661
                                                         0.988355      -0.131883
                                                         0.344978       0.057911
                                                         0.099466       0.045088
                          1       7    5dz2             10.077428      -2.715373
                                                         5.847736      -4.020640
                                                         2.494033      -1.397569
                                                         0.988355      -0.076143
                                                         0.344978       0.033435
                                                         0.099466       0.026032

                          1       8    5fx3             10.077428      -0.467694
                                                         5.847736       0.618100
                                                         2.494033       0.066069
                                                         0.988355       0.262898
                                                         0.344978       0.004720
                                                         0.099466       0.007748
                          1       8    5fx2y            10.077428      -1.045795
                                                         5.847736       1.382114
                                                         2.494033       0.147734
                                                         0.988355       0.587859
                                                         0.344978       0.010555
                                                         0.099466       0.017325
                          1       8    5fx2z            10.077428      -1.045795
                                                         5.847736       1.382114
                                                         2.494033       0.147734
                                                         0.988355       0.587859
                                                         0.344978       0.010555
                                                         0.099466       0.017325
                          1       8    5fxy2            10.077428      -1.045795
                                                         5.847736       1.382114
                                                         2.494033       0.147734
                                                         0.988355       0.587859
                                                         0.344978       0.010555
                                                         0.099466       0.017325
                          1       8    5fxyz            10.077428      -1.811371
                                                         5.847736       2.393892
                                                         2.494033       0.255883
                                                         0.988355       1.018201
                                                         0.344978       0.018282
                                                         0.099466       0.030008
                          1       8    5fxz2            10.077428      -1.045795
                                                         5.847736       1.382114
                                                         2.494033       0.147734
                                                         0.988355       0.587859
                                                         0.344978       0.010555
                                                         0.099466       0.017325
                          1       8    5fy3             10.077428      -0.467694
                                                         5.847736       0.618100
                                                         2.494033       0.066069
                                                         0.988355       0.262898
                                                         0.344978       0.004720
                                                         0.099466       0.007748
                          1       8    5fy2z            10.077428      -1.045795
                                                         5.847736       1.382114
                                                         2.494033       0.147734
                                                         0.988355       0.587859
                                                         0.344978       0.010555
                                                         0.099466       0.017325
                          1       8    5fyz2            10.077428      -1.045795
                                                         5.847736       1.382114
                                                         2.494033       0.147734
                                                         0.988355       0.587859
                                                         0.344978       0.010555
                                                         0.099466       0.017325
                          1       8    5fz3             10.077428      -0.467694
                                                         5.847736       0.618100
                                                         2.494033       0.066069
                                                         0.988355       0.262898
                                                         0.344978       0.004720
                                                         0.099466       0.007748

       Atomic covalent radius [Angstrom]:                                  1.150

       Atomic van der Waals radius [Angstrom]:                             1.630

     GTH Potential information for                                   GTH-PBE-q18

       Description:                       Goedecker-Teter-Hutter pseudopotential
                                           Goedecker et al., PRB 54, 1703 (1996)
                                          Hartwigsen et al., PRB 58, 3641 (1998)
                                                      Krack, TCA 114, 145 (2005)

       Gaussian exponent of the core charge distribution:               4.081633
       Electronic configuration (s p d ...):                           4   6   8

       Parameters of the local part of the GTH pseudopotential:

                          rloc        C1          C2          C3          C4
                        0.350000    2.102166    0.648484

       Parameters of the non-local part of the GTH pseudopotential:

                   l      r(l)      h(i,j,l)

                   0    0.261295    0.622658    9.970227
                                    9.970227  -12.871507
                   1    0.224253  -11.142708   12.429566
                                   12.429566  -14.706861
                   2    0.215348  -12.628146

  2. Atomic kind: Ni_b                                  Number of atoms:      16

     Orbital Basis Set                                        DZVP-MOLOPT-SR-GTH

       Number of orbital shell sets:                                           1
       Number of orbital shells:                                               8
       Number of primitive Cartesian functions:                                6
       Number of Cartesian basis functions:                                   31
       Number of spherical basis functions:                                   26
       Norm type:                                                              2

       Normalised Cartesian orbitals:

                        Set   Shell   Orbital            Exponent    Coefficient

                          1       1    2s               10.077428      -0.684558
                                                         5.847736      -0.844524
                                                         2.494033       1.088856
                                                         0.988355       0.395503
                                                         0.344978       0.010224
                                                         0.099466      -0.003250

                          1       2    3s               10.077428       0.096747
                                                         5.847736       0.162504
                                                         2.494033      -0.297192
                                                         0.988355      -0.319752
                                                         0.344978       0.088318
                                                         0.099466       0.118587

                          1       3    4s               10.077428       0.036437
                                                         5.847736      -0.381480
                                                         2.494033       0.003759
                                                         0.988355      -1.048256
                                                         0.344978       0.855825
                                                         0.099466      -0.176350

                          1       4    3px              10.077428      -3.133913
                                                         5.847736       3.027656
                                                         2.494033       2.353227
                                                         0.988355       0.554184
                                                         0.344978       0.019462
                                                         0.099466      -0.000291
                          1       4    3py              10.077428      -3.133913
                                                         5.847736       3.027656
                                                         2.494033       2.353227
                                                         0.988355       0.554184
                                                         0.344978       0.019462
                                                         0.099466      -0.000291
                          1       4    3pz              10.077428      -3.133913
                                                         5.847736       3.027656
                                                         2.494033       2.353227
                                                         0.988355       0.554184
                                                         0.344978       0.019462
                                                         0.099466      -0.000291

                          1       5    4px              10.077428      -0.112729
                                                         5.847736      -0.114008
                                                         2.494033      -0.347303
                                                         0.988355      -0.110323
                                                         0.344978       0.154096
                                                         0.099466       0.058386
                          1       5    4py              10.077428      -0.112729
                                                         5.847736      -0.114008
                                                         2.494033      -0.347303
                                                         0.988355      -0.110323
                                                         0.344978       0.154096
                                                         0.099466       0.058386
                          1       5    4pz              10.077428      -0.112729
                                                         5.847736      -0.114008
                                                         2.494033      -0.347303
                                                         0.988355      -0.110323
                                                         0.344978       0.154096
                                                         0.099466       0.058386

                          1       6    4dx2             10.077428       8.232726
                                                         5.847736       9.105758
                                                         2.494033       2.849835
                                                         0.988355       0.554319
                                                         0.344978       0.067245
                                                         0.099466       0.001940
                          1       6    4dxy             10.077428      14.259500
                                                         5.847736      15.771636
                                                         2.494033       4.936060
                                                         0.988355       0.960109
                                                         0.344978       0.116472
                                                         0.099466       0.003360
                          1       6    4dxz             10.077428      14.259500
                                                         5.847736      15.771636
                                                         2.494033       4.936060
                                                         0.988355       0.960109
                                                         0.344978       0.116472
                                                         0.099466       0.003360
                          1       6    4dy2             10.077428       8.232726
                                                         5.847736       9.105758
                                                         2.494033       2.849835
                                                         0.988355       0.554319
                                                         0.344978       0.067245
                                                         0.099466       0.001940
                          1       6    4dyz             10.077428      14.259500
                                                         5.847736      15.771636
                                                         2.494033       4.936060
                                                         0.988355       0.960109
                                                         0.344978       0.116472
                                                         0.099466       0.003360
                          1       6    4dz2             10.077428       8.232726
                                                         5.847736       9.105758
                                                         2.494033       2.849835
                                                         0.988355       0.554319
                                                         0.344978       0.067245
                                                         0.099466       0.001940

                          1       7    5dx2             10.077428      -2.715373
                                                         5.847736      -4.020640
                                                         2.494033      -1.397569
                                                         0.988355      -0.076143
                                                         0.344978       0.033435
                                                         0.099466       0.026032
                          1       7    5dxy             10.077428      -4.703164
                                                         5.847736      -6.963952
                                                         2.494033      -2.420661
                                                         0.988355      -0.131883
                                                         0.344978       0.057911
                                                         0.099466       0.045088
                          1       7    5dxz             10.077428      -4.703164
                                                         5.847736      -6.963952
                                                         2.494033      -2.420661
                                                         0.988355      -0.131883
                                                         0.344978       0.057911
                                                         0.099466       0.045088
                          1       7    5dy2             10.077428      -2.715373
                                                         5.847736      -4.020640
                                                         2.494033      -1.397569
                                                         0.988355      -0.076143
                                                         0.344978       0.033435
                                                         0.099466       0.026032
                          1       7    5dyz             10.077428      -4.703164
                                                         5.847736      -6.963952
                                                         2.494033      -2.420661
                                                         0.988355      -0.131883
                                                         0.344978       0.057911
                                                         0.099466       0.045088
                          1       7    5dz2             10.077428      -2.715373
                                                         5.847736      -4.020640
                                                         2.494033      -1.397569
                                                         0.988355      -0.076143
                                                         0.344978       0.033435
                                                         0.099466       0.026032

                          1       8    5fx3             10.077428      -0.467694
                                                         5.847736       0.618100
                                                         2.494033       0.066069
                                                         0.988355       0.262898
                                                         0.344978       0.004720
                                                         0.099466       0.007748
                          1       8    5fx2y            10.077428      -1.045795
                                                         5.847736       1.382114
                                                         2.494033       0.147734
                                                         0.988355       0.587859
                                                         0.344978       0.010555
                                                         0.099466       0.017325
                          1       8    5fx2z            10.077428      -1.045795
                                                         5.847736       1.382114
                                                         2.494033       0.147734
                                                         0.988355       0.587859
                                                         0.344978       0.010555
                                                         0.099466       0.017325
                          1       8    5fxy2            10.077428      -1.045795
                                                         5.847736       1.382114
                                                         2.494033       0.147734
                                                         0.988355       0.587859
                                                         0.344978       0.010555
                                                         0.099466       0.017325
                          1       8    5fxyz            10.077428      -1.811371
                                                         5.847736       2.393892
                                                         2.494033       0.255883
                                                         0.988355       1.018201
                                                         0.344978       0.018282
                                                         0.099466       0.030008
                          1       8    5fxz2            10.077428      -1.045795
                                                         5.847736       1.382114
                                                         2.494033       0.147734
                                                         0.988355       0.587859
                                                         0.344978       0.010555
                                                         0.099466       0.017325
                          1       8    5fy3             10.077428      -0.467694
                                                         5.847736       0.618100
                                                         2.494033       0.066069
                                                         0.988355       0.262898
                                                         0.344978       0.004720
                                                         0.099466       0.007748
                          1       8    5fy2z            10.077428      -1.045795
                                                         5.847736       1.382114
                                                         2.494033       0.147734
                                                         0.988355       0.587859
                                                         0.344978       0.010555
                                                         0.099466       0.017325
                          1       8    5fyz2            10.077428      -1.045795
                                                         5.847736       1.382114
                                                         2.494033       0.147734
                                                         0.988355       0.587859
                                                         0.344978       0.010555
                                                         0.099466       0.017325
                          1       8    5fz3             10.077428      -0.467694
                                                         5.847736       0.618100
                                                         2.494033       0.066069
                                                         0.988355       0.262898
                                                         0.344978       0.004720
                                                         0.099466       0.007748

       Atomic covalent radius [Angstrom]:                                  1.150

       Atomic van der Waals radius [Angstrom]:                             1.630

     GTH Potential information for                                   GTH-PBE-q18

       Description:                       Goedecker-Teter-Hutter pseudopotential
                                           Goedecker et al., PRB 54, 1703 (1996)
                                          Hartwigsen et al., PRB 58, 3641 (1998)
                                                      Krack, TCA 114, 145 (2005)

       Gaussian exponent of the core charge distribution:               4.081633
       Electronic configuration (s p d ...):                           4   6   8

       Parameters of the local part of the GTH pseudopotential:

                          rloc        C1          C2          C3          C4
                        0.350000    2.102166    0.648484

       Parameters of the non-local part of the GTH pseudopotential:

                   l      r(l)      h(i,j,l)

                   0    0.261295    0.622658    9.970227
                                    9.970227  -12.871507
                   1    0.224253  -11.142708   12.429566
                                   12.429566  -14.706861
                   2    0.215348  -12.628146


 MOLECULE KIND INFORMATION


 All atoms are their own molecule, skipping detailed information


 TOTAL NUMBERS AND MAXIMUM NUMBERS

  Total number of            - Atomic kinds:                                   2
                             - Atoms:                                         32
                             - Shell sets:                                    32
                             - Shells:                                       256
                             - Primitive Cartesian functions:                192
                             - Cartesian basis functions:                    992
                             - Spherical basis functions:                    832

  Maximum angular momentum of- Orbital basis functions:                        3
                             - Local part of the GTH pseudopotential:          2
                             - Non-local part of the GTH pseudopotential:      3


 MODULE QUICKSTEP: ATOMIC COORDINATES IN ANGSTROM

   Atom Kind Element         X             Y             Z       Z(eff)     Mass
      1    1 Ni   28      0.876298      0.876298      7.370500  18.0000  58.6934
      2    1 Ni   28      0.876298      4.382298      7.370500  18.0000  58.6934
      3    1 Ni   28      2.629298      2.629298      7.370500  18.0000  58.6934
      4    1 Ni   28      2.629298      6.135298      7.370500  18.0000  58.6934
      5    1 Ni   28      4.382298      0.876298      7.370500  18.0000  58.6934
      6    1 Ni   28      4.382298      4.382298      7.370500  18.0000  58.6934
      7    1 Ni   28      6.135298      2.629298      7.370500  18.0000  58.6934
      8    1 Ni   28      6.135298      6.135298      7.370500  18.0000  58.6934
      9    2 Ni   28      0.876298      2.629298      9.123500  18.0000  58.6934
     10    2 Ni   28      0.876298      6.135298      9.123500  18.0000  58.6934
     11    2 Ni   28      2.629298      0.876298      9.123500  18.0000  58.6934
     12    2 Ni   28      2.629298      4.382298      9.123500  18.0000  58.6934
     13    2 Ni   28      4.382298      2.629298      9.123500  18.0000  58.6934
     14    2 Ni   28      4.382298      6.135298      9.123500  18.0000  58.6934
     15    2 Ni   28      6.135298      0.876298      9.123500  18.0000  58.6934
     16    2 Ni   28      6.135298      4.382298      9.123500  18.0000  58.6934
     17    2 Ni   28      0.876298      0.876298     10.876500  18.0000  58.6934
     18    2 Ni   28      0.876298      4.382298     10.876500  18.0000  58.6934
     19    2 Ni   28      2.629298      2.629298     10.876500  18.0000  58.6934
     20    2 Ni   28      2.629298      6.135298     10.876500  18.0000  58.6934
     21    2 Ni   28      4.382298      0.876298     10.876500  18.0000  58.6934
     22    2 Ni   28      4.382298      4.382298     10.876500  18.0000  58.6934
     23    2 Ni   28      6.135298      2.629298     10.876500  18.0000  58.6934
     24    2 Ni   28      6.135298      6.135298     10.876500  18.0000  58.6934
     25    1 Ni   28      0.876298      2.629298     12.629500  18.0000  58.6934
     26    1 Ni   28      0.876298      6.135298     12.629500  18.0000  58.6934
     27    1 Ni   28      2.629298      0.876298     12.629500  18.0000  58.6934
     28    1 Ni   28      2.629298      4.382298     12.629500  18.0000  58.6934
     29    1 Ni   28      4.382298      2.629298     12.629500  18.0000  58.6934
     30    1 Ni   28      4.382298      6.135298     12.629500  18.0000  58.6934
     31    1 Ni   28      6.135298      0.876298     12.629500  18.0000  58.6934
     32    1 Ni   28      6.135298      4.382298     12.629500  18.0000  58.6934



 SCF PARAMETERS         Density guess:                                    ATOMIC
                        --------------------------------------------------------
                        max_scf:                                             500
                        max_scf_history:                                       0
                        max_diis:                                              4
                        --------------------------------------------------------
                        eps_scf:                                        1.00E-04
                        eps_scf_history:                                0.00E+00
                        eps_diis:                                       1.00E-01
                        eps_eigval:                                     1.00E-05
                        --------------------------------------------------------
                        level_shift [a.u.]:                             0.000000
                        added MOs                                       533  554
                        --------------------------------------------------------
                        Mixing method:                            BROYDEN_MIXING
                                                charge density mixing in g-space
                        --------------------------------------------------------
                        Smear method:                                FERMI_DIRAC
                        Electronic temperature [K]:                       2000.0
                        Electronic temperature [a.u.]:                  6.33E-03
                        Accuracy threshold:                             1.00E-10
                        --------------------------------------------------------
                        No outer SCF

 PW_GRID| Information for grid number                                          1
 PW_GRID| Grid distributed over                                   128 processors
 PW_GRID| Real space group dimensions                                     8   16
 PW_GRID| the grid is blocked:                                               YES
 PW_GRID| Cutoff [a.u.]                                                    300.0
 PW_GRID| spherical cutoff:                                                   NO
 PW_GRID|   Bounds   1            -54      53                Points:         108
 PW_GRID|   Bounds   2            -54      53                Points:         108
 PW_GRID|   Bounds   3           -150     149                Points:         300
 PW_GRID| Volume element (a.u.^3)  0.1896E-02     Volume (a.u.^3)      6635.2971
 PW_GRID| Grid span                                                    FULLSPACE
 PW_GRID|   Distribution                         Average         Max         Min
 PW_GRID|   G-Vectors                            27337.5       28728       25272
 PW_GRID|   G-Rays                                 253.1         266         234
 PW_GRID|   Real Space Points                    27337.5       28728       25272

 PW_GRID| Information for grid number                                          2
 PW_GRID| Number of the reference grid                                         1
 PW_GRID| Grid distributed over                                   128 processors
 PW_GRID| Real space group dimensions                                     8   16
 PW_GRID| the grid is blocked:                                                NO
 PW_GRID| Cutoff [a.u.]                                                    100.0
 PW_GRID| spherical cutoff:                                                   NO
 PW_GRID|   Bounds   1            -30      29                Points:          60
 PW_GRID|   Bounds   2            -30      29                Points:          60
 PW_GRID|   Bounds   3            -90      89                Points:         180
 PW_GRID| Volume element (a.u.^3)  0.1024E-01     Volume (a.u.^3)      6635.2971
 PW_GRID| Grid span                                                    FULLSPACE
 PW_GRID|   Distribution                         Average         Max         Min
 PW_GRID|   G-Vectors                             5062.5       15960           0
 PW_GRID|   G-Rays                                  84.4         266           0
 PW_GRID|   Real Space Points                     5062.5        5760        3780

 PW_GRID| Information for grid number                                          3
 PW_GRID| Number of the reference grid                                         1
 PW_GRID| Grid distributed over                                   128 processors
 PW_GRID| Real space group dimensions                                     8   16
 PW_GRID| the grid is blocked:                                                NO
 PW_GRID| Cutoff [a.u.]                                                     33.3
 PW_GRID| spherical cutoff:                                                   NO
 PW_GRID|   Bounds   1            -18      17                Points:          36
 PW_GRID|   Bounds   2            -18      17                Points:          36
 PW_GRID|   Bounds   3            -50      49                Points:         100
 PW_GRID| Volume element (a.u.^3)  0.5120E-01     Volume (a.u.^3)      6635.2971
 PW_GRID| Grid span                                                    FULLSPACE
 PW_GRID|   Distribution                         Average         Max         Min
 PW_GRID|   G-Vectors                             1012.5        9576           0
 PW_GRID|   G-Rays                                  28.1         266           0
 PW_GRID|   Real Space Points                     1012.5        1500         800

 PW_GRID| Information for grid number                                          4
 PW_GRID| Number of the reference grid                                         1
 PW_GRID| Grid distributed over                                   128 processors
 PW_GRID| Real space group dimensions                                     8   16
 PW_GRID| the grid is blocked:                                                NO
 PW_GRID| Cutoff [a.u.]                                                     11.1
 PW_GRID| spherical cutoff:                                                   NO
 PW_GRID|   Bounds   1            -10       9                Points:          20
 PW_GRID|   Bounds   2            -10       9                Points:          20
 PW_GRID|   Bounds   3            -30      29                Points:          60
 PW_GRID| Volume element (a.u.^3)  0.2765         Volume (a.u.^3)      6635.2971
 PW_GRID| Grid span                                                    FULLSPACE
 PW_GRID|   Distribution                         Average         Max         Min
 PW_GRID|   G-Vectors                              187.5        3800           0
 PW_GRID|   G-Rays                                   9.4         190           0
 PW_GRID|   Real Space Points                      187.5         360         120

 PW_GRID| Information for grid number                                          5
 PW_GRID| Number of the reference grid                                         1
 PW_GRID| Grid distributed over                                   128 processors
 PW_GRID| Real space group dimensions                                     8   16
 PW_GRID| the grid is blocked:                                                NO
 PW_GRID| Cutoff [a.u.]                                                      3.7
 PW_GRID| spherical cutoff:                                                   NO
 PW_GRID|   Bounds   1             -6       5                Points:          12
 PW_GRID|   Bounds   2             -6       5                Points:          12
 PW_GRID|   Bounds   3            -18      17                Points:          36
 PW_GRID| Volume element (a.u.^3)   1.280         Volume (a.u.^3)      6635.2971
 PW_GRID| Grid span                                                    FULLSPACE
 PW_GRID|   Distribution                         Average         Max         Min
 PW_GRID|   G-Vectors                               40.5        1296           0
 PW_GRID|   G-Rays                                   3.4         108           0
 PW_GRID|   Real Space Points                       40.5          72           0

 POISSON| Solver                                                        PERIODIC
 POISSON| Periodicity                                                        XYZ

 RS_GRID| Information for grid number                                          1
 RS_GRID|   Bounds   1            -54      53                Points:         108
 RS_GRID|   Bounds   2            -54      53                Points:         108
 RS_GRID|   Bounds   3           -150     149                Points:         300
 RS_GRID| Real space distribution over                                  8 groups
 RS_GRID| Real space distribution along direction                              2
 RS_GRID| Border size                                                         28
 RS_GRID| Real space distribution over                                 16 groups
 RS_GRID| Real space distribution along direction                              3
 RS_GRID| Border size                                                         28
 RS_GRID|   Distribution                         Average         Max         Min
 RS_GRID|   Planes                                  69.5          70          69
 RS_GRID|   Distribution                         Average         Max         Min
 RS_GRID|   Planes                                  74.8          75          74

 RS_GRID| Information for grid number                                          2
 RS_GRID|   Bounds   1            -30      29                Points:          60
 RS_GRID|   Bounds   2            -30      29                Points:          60
 RS_GRID|   Bounds   3            -90      89                Points:         180
 RS_GRID| Real space fully replicated
 RS_GRID| Group size                                                           1

 RS_GRID| Information for grid number                                          3
 RS_GRID|   Bounds   1            -18      17                Points:          36
 RS_GRID|   Bounds   2            -18      17                Points:          36
 RS_GRID|   Bounds   3            -50      49                Points:         100
 RS_GRID| Real space fully replicated
 RS_GRID| Group size                                                           1

 RS_GRID| Information for grid number                                          4
 RS_GRID|   Bounds   1            -10       9                Points:          20
 RS_GRID|   Bounds   2            -10       9                Points:          20
 RS_GRID|   Bounds   3            -30      29                Points:          60
 RS_GRID| Real space fully replicated
 RS_GRID| Group size                                                           1

 RS_GRID| Information for grid number                                          5
 RS_GRID|   Bounds   1             -6       5                Points:          12
 RS_GRID|   Bounds   2             -6       5                Points:          12
 RS_GRID|   Bounds   3            -18      17                Points:          36
 RS_GRID| Real space fully replicated
 RS_GRID| Group size                                                           1

 Spin 1

 Number of electrons:                                                        298.400
 Number of occupied orbitals:                                                299
 Number of molecular orbitals:                                               832

 Spin 2

 Number of electrons:                                                        277.600
 Number of occupied orbitals:                                                278
 Number of molecular orbitals:                                               832

 Number of orbital functions:                                                832
 Number of independent orbital functions:                                    832

 Extrapolation method: initial_guess

 Atomic guess: The first density matrix is obtained in terms of atomic orbitals
               and electronic configurations assigned to each atomic kind

 Guess for atomic kind: Ni_i

 Electronic structure
    Total number of core electrons                                         10.00
    Total number of valence electrons                                      18.00
    Total number of electrons                                              28.00
    Multiplicity                                                         doublet
    Alpha Electrons
    S   [  1.00  1.00] 1.00  1.00
    P   [  3.00] 3.00
    D      4.25
    Beta Electrons
    S   [  1.00  1.00] 1.00  1.00
    P   [  3.00] 3.00
    D      3.75


 *******************************************************************************
                  Iteration          Convergence                     Energy [au]
 *******************************************************************************
                          1         1.51687                    -167.065012761055
                          2         14.9817                    -156.620431300845
                          3         2.25575                    -168.317311438693
                          4        0.189210                    -168.607926092750
                          5        0.708658E-01                -168.610773319290
                          6        0.122256E-01                -168.611238205502
                          7        0.598421E-02                -168.611272268995
                          8        0.528277E-02                -168.611272438110
                          9        0.104644E-02                -168.611275321653
                         10        0.260234E-02                -168.611274926630
                         11        0.975322E-03                -168.611275328217
                         12        0.161067E-03                -168.611275447773
                         13        0.147413E-03                -168.611275446839
                         14        0.115114E-03                -168.611275449434
                         15        0.167217E-03                -168.611275445436
                         16        0.255374E-04                -168.611275450531
                         17        0.418369E-04                -168.611275450414
                         18        0.393709E-04                -168.611275450477
                         19        0.239931E-04                -168.611275450542
                         20        0.173885E-04                -168.611275450557
                         21        0.851368E-05                -168.611275450578
                         22        0.849928E-05                -168.611275450580
                         23        0.544937E-05                -168.611275450584
                         24        0.540003E-05                -168.611275450586
                         25        0.613371E-05                -168.611275450584
                         26        0.311593E-06                -168.611275450588

 Energy components [Hartree]           Total Energy ::         -168.611275450588
                                        Band Energy ::          -26.568680144499
                                     Kinetic Energy ::           97.303659243130
                                   Potential Energy ::         -265.914934693718
                                      Virial (-V/T) ::            2.732835915546
                                        Core Energy ::         -299.566189183323
                                          XC Energy ::          -16.224592878785
                                     Coulomb Energy ::          147.179506611520
                       Total Pseudopotential Energy ::         -396.956189041778
                       Local Pseudopotential Energy ::         -362.645043136649
                    Nonlocal Pseudopotential Energy ::          -34.311145905129
                                        Confinement ::            0.863406153250

 Orbital energies  State     Spin  L     Occupation   Energy[a.u.]    Energy[eV]

                       1    alpha  0          1.000      -4.168335   -113.426177
                       2    alpha  0          1.000      -0.180730     -4.917906
                       1     beta  0          1.000      -4.145459   -112.803683
                       2     beta  0          1.000      -0.177117     -4.819606

                       1    alpha  1          3.000      -2.574525    -70.056390
                       1     beta  1          3.000      -2.552268    -69.450746

                       1    alpha  2          4.250      -0.323446     -8.801405
                       1     beta  2          3.750      -0.304537     -8.286881


 Total Electron Density at R=0:                                         0.030429

 Guess for atomic kind: Ni_b

 Electronic structure
    Total number of core electrons                                         10.00
    Total number of valence electrons                                      18.00
    Total number of electrons                                              28.00
    Multiplicity                                                         doublet
    Alpha Electrons
    S   [  1.00  1.00] 1.00  1.00
    P   [  3.00] 3.00
    D      4.40
    Beta Electrons
    S   [  1.00  1.00] 1.00  1.00
    P   [  3.00] 3.00
    D      3.60


 *******************************************************************************
                  Iteration          Convergence                     Energy [au]
 *******************************************************************************
                          1         1.51750                    -167.068932204718
                          2         15.5935                    -156.656530566819
                          3         2.37322                    -168.320625176021
                          4        0.215236                    -168.611142488999
                          5        0.864690E-01                -168.614185977773
                          6        0.204270E-01                -168.614864366588
                          7        0.117629E-02                -168.614962284536
                          8        0.143499E-02                -168.614962241165
                          9        0.165550E-03                -168.614962454733
                         10        0.801651E-03                -168.614962414936
                         11        0.526340E-03                -168.614962440154
                         12        0.114214E-03                -168.614962458210
                         13        0.974554E-04                -168.614962459061
                         14        0.103837E-03                -168.614962459937
                         15        0.922182E-04                -168.614962460311
                         16        0.489415E-04                -168.614962460739
                         17        0.376531E-04                -168.614962461148
                         18        0.319337E-04                -168.614962461185
                         19        0.537275E-04                -168.614962461068
                         20        0.409549E-04                -168.614962461145
                         21        0.226152E-04                -168.614962461237
                         22        0.174462E-04                -168.614962461257
                         23        0.165586E-04                -168.614962461260
                         24        0.160650E-04                -168.614962461262
                         25        0.113583E-04                -168.614962461280
                         26        0.503754E-05                -168.614962461287
                         27        0.239088E-05                -168.614962461289
                         28        0.206656E-05                -168.614962461289
                         29        0.678810E-06                -168.614962461289

 Energy components [Hartree]           Total Energy ::         -168.614962461289
                                        Band Energy ::          -26.570438398031
                                     Kinetic Energy ::           97.308645535822
                                   Potential Energy ::         -265.923607997111
                                      Virial (-V/T) ::            2.732785011371
                                        Core Energy ::         -299.569105195415
                                          XC Energy ::          -16.228812263913
                                     Coulomb Energy ::          147.182954998038
                       Total Pseudopotential Energy ::         -396.964091881334
                       Local Pseudopotential Energy ::         -362.650332264705
                    Nonlocal Pseudopotential Energy ::          -34.313759616629
                                        Confinement ::            0.863411500974

 Orbital energies  State     Spin  L     Occupation   Energy[a.u.]    Energy[eV]

                       1    alpha  0          1.000      -4.174802   -113.602130
                       2    alpha  0          1.000      -0.181779     -4.946449
                       1     beta  0          1.000      -4.138200   -112.606137
                       2     beta  0          1.000      -0.175997     -4.789129

                       1    alpha  1          3.000      -2.580817    -70.227599
                       1     beta  1          3.000      -2.545205    -69.258560

                       1    alpha  2          4.400      -0.328813     -8.947444
                       1     beta  2          3.600      -0.298561     -8.124256


 Total Electron Density at R=0:                                         0.030417

 Spin 1
 Re-scaling the density matrix to get the right number of electrons for spin 1
                  # Electrons              Trace(P)               Scaling factor
                        298.400             298.400                        1.000

 Spin 2
 Re-scaling the density matrix to get the right number of electrons for spin 2
                  # Electrons              Trace(P)               Scaling factor
                        277.600             277.600                        1.000


 SCF WAVEFUNCTION OPTIMIZATION

  Step     Update method      Time    Convergence         Total energy    Change
  ------------------------------------------------------------------------------
     1 NoMix/Diag. 0.80E-01    1.4     0.87368656     -5426.4669670429 -5.43E+03
     2 Broy./Diag. 0.80E-01    1.5     0.02014799     -5317.0084569775  1.09E+02
     3 Broy./Diag. 0.80E-01    1.5     0.04204970     -5349.6285646905 -3.26E+01
     4 Broy./Diag. 0.80E-01    1.5     0.01332418     -5404.3191483635 -5.47E+01
     5 Broy./Diag. 0.80E-01    1.5     0.00677476     -5416.4980507468 -1.22E+01
     6 Broy./Diag. 0.80E-01    1.5     0.01677652     -5414.8953940304  1.60E+00
     7 Broy./Diag. 0.80E-01    1.5     0.00149319     -5417.1021091490 -2.21E+00
     8 Broy./Diag. 0.80E-01    1.5     0.00885190     -5416.6890362032  4.13E-01
     9 Broy./Diag. 0.80E-01    1.5     0.00198856     -5417.3517660212 -6.63E-01
    10 Broy./Diag. 0.80E-01    1.6     0.00223818     -5417.2777960695  7.40E-02
    11 Broy./Diag. 0.80E-01    1.5     0.00252977     -5417.5869328498 -3.09E-01
    12 Broy./Diag. 0.80E-01    1.5     0.00131634     -5417.2795287150  3.07E-01
[...]
   131 Broy./Diag. 0.80E-01    1.5     0.00598356     -5417.4433876959 -1.05E+00
   132 Broy./Diag. 0.80E-01    1.5     0.01561313     -5417.9925753359 -5.49E-01
   133 Broy./Diag. 0.80E-01    1.5     0.00667422     -5417.3340111287  6.59E-01
   134 Broy./Diag. 0.80E-01    1.5     0.01021651     -5418.0578335410 -7.24E-01
   135 Broy./Diag. 0.80E-01    1.5     0.00986822     -5417.0738986151  9.84E-01
   136 Broy./Diag. 0.80E-01    1.5     0.02361196     -5417.4000374247 -3.26E-01
   137 Broy./Diag. 0.80E-01    1.5     0.00472100     -5416.7640491097  6.36E-01
   138 Broy./Diag. 0.80E-01    1.5     0.01883852     -5416.7352251189  2.88E-02
   139 Broy./Diag. 0.80E-01    1.5     0.00144706     -5417.0861354137 -3.51E-01
   140 Broy./Diag. 0.80E-01    1.5     0.01870857     -5417.5122631261 -4.26E-01
   141 Broy./Diag. 0.80E-01    1.5     0.03407043     -5419.0851231551 -1.57E+00
   142 Broy./Diag. 0.80E-01    1.5     0.06258187     -5418.9988514084  8.63E-02
   143 Broy./Diag. 0.80E-01    1.5     0.03244535     -5417.1464214626  1.85E+00
   144 Broy./Diag. 0.80E-01    1.5     0.02188260     -5417.9847911252 -8.38E-01
   145 Broy./Diag. 0.80E-01    1.5     0.02179054     -5417.5939345333  3.91E-01
   146 Broy./Diag. 0.80E-01    1.5     0.01826348     -5418.4867611647 -8.93E-01
   147 Broy./Diag. 0.80E-01    1.5     0.01148759     -5417.7364808796  7.50E-01
   148 Broy./Diag. 0.80E-01    1.5     0.01664619     -5419.0831025296 -1.35E+00
   149 Broy./Diag. 0.80E-01    1.5     0.00498881     -5418.9998730682  8.32E-02
   150 Broy./Diag. 0.80E-01    1.5     0.02499925     -5418.6759255306  3.24E-01
   151 Broy./Diag. 0.80E-01    1.5     0.01897093     -5418.3560592019  3.20E-01
   152 Broy./Diag. 0.80E-01    1.5     0.01094609     -5417.3841158414  9.72E-01
   153 Broy./Diag. 0.80E-01    1.5     0.03885391     -5416.2836703251  1.10E+00
   154 Broy./Diag. 0.80E-01    1.5     0.01846522     -5418.4540301335 -2.17E+00
   155 Broy./Diag. 0.80E-01    1.5     0.00786186     -5417.9137983566  5.40E-01
   156 Broy./Diag. 0.80E-01    1.5     0.02360745     -5418.0361614041 -1.22E-01
   157 Broy./Diag. 0.80E-01    1.5     0.02485615     -5417.5018757751  5.34E-01
   158 Broy./Diag. 0.80E-01    1.5     0.01931836     -5417.9114404268 -4.10E-01
   159 Broy./Diag. 0.80E-01    1.5     0.01774715     -5416.7899795663  1.12E+00
   160 Broy./Diag. 0.80E-01    1.5     0.02488571     -5416.0065232915  7.83E-01
   161 Broy./Diag. 0.80E-01    1.5     0.01696517     -5415.9334831260  7.30E-02
   162 Broy./Diag. 0.80E-01    1.5     0.03690546     -5415.2707263965  6.63E-01
   163 Broy./Diag. 0.80E-01    1.5     0.01821193     -5418.1220352137 -2.85E+00
   164 Broy./Diag. 0.80E-01    1.5     0.03623648     -5418.6830656524 -5.61E-01
   165 Broy./Diag. 0.80E-01    1.5     0.02685218     -5417.0921352495  1.59E+00
   166 Broy./Diag. 0.80E-01    1.5     0.03860870     -5417.2418616947 -1.50E-01
   167 Broy./Diag. 0.80E-01    1.5     0.05033182     -5417.2904713316 -4.86E-02
   168 Broy./Diag. 0.80E-01    1.5     0.02824503     -5416.4112530296  8.79E-01
   169 Broy./Diag. 0.80E-01    1.5     0.01572593     -5417.4862007943 -1.07E+00
   170 Broy./Diag. 0.80E-01    1.5     0.03975645     -5417.7510009770 -2.65E-01
   171 Broy./Diag. 0.80E-01    1.5     0.03859881     -5418.3542945846 -6.03E-01
   172 Broy./Diag. 0.80E-01    1.5     0.00500851     -5417.0547872936  1.30E+00
   173 Broy./Diag. 0.80E-01    1.5     0.02556809     -5417.1750283197 -1.20E-01
   174 Broy./Diag. 0.80E-01    1.5     0.01974395     -5417.4760917796 -3.01E-01
   175 Broy./Diag. 0.80E-01    1.5     0.01665933     -5417.6329706114 -1.57E-01
   176 Broy./Diag. 0.80E-01    1.5     0.02944879     -5417.5297280421  1.03E-01
   177 Broy./Diag. 0.80E-01    1.5     0.04426342     -5417.8196107485 -2.90E-01
   178 Broy./Diag. 0.80E-01    1.5     0.00631776     -5416.2747426431  1.54E+00
   179 Broy./Diag. 0.80E-01    1.5     0.01998179     -5416.3446537928 -6.99E-02
   180 Broy./Diag. 0.80E-01    1.5     0.04791486     -5416.6279764112 -2.83E-01
   181 Broy./Diag. 0.80E-01    1.5     0.02082445     -5418.7928887392 -2.16E+00
   182 Broy./Diag. 0.80E-01    1.5     0.01327197     -5418.3905084491  4.02E-01
   183 Broy./Diag. 0.80E-01    1.5     0.01050771     -5417.4482538930  9.42E-01
   184 Broy./Diag. 0.80E-01    1.5     0.00643499     -5417.7254331965 -2.77E-01
   185 Broy./Diag. 0.80E-01    1.5     0.01316331     -5418.3980340961 -6.73E-01
   186 Broy./Diag. 0.80E-01    1.5     0.00681299     -5416.6284832476  1.77E+00
   187 Broy./Diag. 0.80E-01    1.5     0.01345549     -5415.5388155418  1.09E+00
   188 Broy./Diag. 0.80E-01    1.5     0.01293215     -5418.5572058841 -3.02E+00
   189 Broy./Diag. 0.80E-01    1.5     0.03866884     -5418.1238124819  4.33E-01
   190 Broy./Diag. 0.80E-01    1.5     0.06992520     -5419.6451592227 -1.52E+00
   191 Broy./Diag. 0.80E-01    1.5     0.03563647     -5419.1345712966  5.11E-01
   192 Broy./Diag. 0.80E-01    1.5     0.02236381     -5418.3006465469  8.34E-01
   193 Broy./Diag. 0.80E-01    1.5     0.02132438     -5418.5551203326 -2.54E-01
   194 Broy./Diag. 0.80E-01    1.5     0.01741724     -5419.4298204895 -8.75E-01
   195 Broy./Diag. 0.80E-01    1.5     0.03256018     -5418.6299434674  8.00E-01
   196 Broy./Diag. 0.80E-01    1.5     0.01480057     -5418.4036929947  2.26E-01
   197 Broy./Diag. 0.80E-01    1.5     0.04552923     -5418.2342149071  1.69E-01
   198 Broy./Diag. 0.80E-01    1.5     0.04335034     -5415.8046924773  2.43E+00
   199 Broy./Diag. 0.80E-01    1.5     0.05212011     -5416.3125759518 -5.08E-01
   200 Broy./Diag. 0.80E-01    1.5     0.02979219     -5417.7832437187 -1.47E+00
   201 Broy./Diag. 0.80E-01    1.5     0.04031674     -5415.4811766448  2.30E+00
   202 Broy./Diag. 0.80E-01    1.5     0.01980060     -5417.1544508789 -1.67E+00
   203 Broy./Diag. 0.80E-01    1.5     0.05609927     -5414.0435990657  3.11E+00
   204 Broy./Diag. 0.80E-01    1.5     0.04410575     -5415.8213399975 -1.78E+00
   205 Broy./Diag. 0.80E-01    1.5     0.06928243     -5418.7221895025 -2.90E+00
   206 Broy./Diag. 0.80E-01    1.5     0.09133025     -5417.9950180273  7.27E-01
   207 Broy./Diag. 0.80E-01    1.5     0.00918778     -5416.9258923362  1.07E+00
   208 Broy./Diag. 0.80E-01    1.5     0.01721456     -5417.1316048336 -2.06E-01
   209 Broy./Diag. 0.80E-01    1.5     0.04907107     -5416.1191320381  1.01E+00
   210 Broy./Diag. 0.80E-01    1.5     0.03089707     -5416.8675884467 -7.48E-01
   211 Broy./Diag. 0.80E-01    1.5     0.02839466     -5417.1365554374 -2.69E-01
   212 Broy./Diag. 0.80E-01    1.5     0.03332515     -5419.2431891212 -2.11E+00
   213 Broy./Diag. 0.80E-01    1.5     0.02679634     -5415.2635196094  3.98E+00
   214 Broy./Diag. 0.80E-01    1.5     0.03518378     -5418.4089088255 -3.15E+00
   215 Broy./Diag. 0.80E-01    1.5     0.02291466     -5417.0250849455  1.38E+00
   216 Broy./Diag. 0.80E-01    1.5     0.01887380     -5418.5858308733 -1.56E+00
   217 Broy./Diag. 0.80E-01    1.5     0.05787194     -5418.3323667664  2.53E-01
   218 Broy./Diag. 0.80E-01    1.5     0.07891901     -5418.1241055893  2.08E-01
   219 Broy./Diag. 0.80E-01    1.5     0.02269774     -5417.1584829683  9.66E-01
   220 Broy./Diag. 0.80E-01    1.5     0.01989950     -5418.3857971918 -1.23E+00
   221 Broy./Diag. 0.80E-01    1.5     0.03860923     -5417.4090094499  9.77E-01
   222 Broy./Diag. 0.80E-01    1.5     0.04360628     -5418.4212791196 -1.01E+00
   223 Broy./Diag. 0.80E-01    1.5     0.05375953     -5418.1294853222  2.92E-01
   224 Broy./Diag. 0.80E-01    1.5     0.02948762     -5417.4233492909  7.06E-01
   225 Broy./Diag. 0.80E-01    1.5     0.02451456     -5416.1985157547  1.22E+00
   226 Broy./Diag. 0.80E-01    1.5     0.02662738     -5415.2376581287  9.61E-01
   227 Broy./Diag. 0.80E-01    1.5     0.05100451     -5417.9651453376 -2.73E+00
   228 Broy./Diag. 0.80E-01    1.5     0.11535884     -5417.2442464172  7.21E-01
   229 Broy./Diag. 0.80E-01    1.5     0.03034102     -5417.5744694994 -3.30E-01
   230 Broy./Diag. 0.80E-01    1.5     0.05138111     -5419.6590287627 -2.08E+00
   231 Broy./Diag. 0.80E-01    1.5     0.04112084     -5418.9801685461  6.79E-01
   232 Broy./Diag. 0.80E-01    1.5     0.06314345     -5417.6650921030  1.32E+00
   233 Broy./Diag. 0.80E-01    1.5     0.03623291     -5419.0695230380 -1.40E+00
   234 Broy./Diag. 0.80E-01    1.5     0.02402390     -5418.3685812188  7.01E-01
   235 Broy./Diag. 0.80E-01    1.5     0.01768322     -5416.6599223538  1.71E+00
   236 Broy./Diag. 0.80E-01    1.5     0.07410720     -5419.6075719030 -2.95E+00
   237 Broy./Diag. 0.80E-01    1.5     0.05546723     -5418.0599561895  1.55E+00
   238 Broy./Diag. 0.80E-01    1.5     0.04081047     -5418.1538780102 -9.39E-02
   239 Broy./Diag. 0.80E-01    1.5     0.03876801     -5412.7490533377  5.40E+00
   240 Broy./Diag. 0.80E-01    1.5     0.04524429     -5417.4423178421 -4.69E+00
   241 Broy./Diag. 0.80E-01    1.5     0.05165777     -5416.4112611521  1.03E+00
   242 Broy./Diag. 0.80E-01    1.5     0.06619818     -5417.1429508540 -7.32E-01
   243 Broy./Diag. 0.80E-01    1.5     0.06883133     -5418.1167216273 -9.74E-01
   244 Broy./Diag. 0.80E-01    1.5     0.01315566     -5416.5630110799  1.55E+00
   245 Broy./Diag. 0.80E-01    1.5     0.03120435     -5417.8519555796 -1.29E+00
   246 Broy./Diag. 0.80E-01    1.5     0.06945595     -5416.1535093586  1.70E+00
   247 Broy./Diag. 0.80E-01    1.5     0.00276020     -5417.2148936971 -1.06E+00
   248 Broy./Diag. 0.80E-01    1.5     0.03001836     -5417.1032905664  1.12E-01
   249 Broy./Diag. 0.80E-01    1.5     0.03450581     -5418.3559374735 -1.25E+00
   250 Broy./Diag. 0.80E-01    1.5     0.02938251     -5413.9389532599  4.42E+00
   251 Broy./Diag. 0.80E-01    1.5     0.05136332     -5416.4646525815 -2.53E+00
   252 Broy./Diag. 0.80E-01    1.5     0.04383151     -5419.5346846623 -3.07E+00
   253 Broy./Diag. 0.80E-01    1.5     0.03633505     -5418.9982714075  5.36E-01
   254 Broy./Diag. 0.80E-01    1.5     0.01710168     -5417.2564106083  1.74E+00
   255 Broy./Diag. 0.80E-01    1.5     0.02686989     -5419.3478479698 -2.09E+00
   256 Broy./Diag. 0.80E-01    1.5     0.06529529     -5418.3672884876  9.81E-01
   257 Broy./Diag. 0.80E-01    1.5     0.00782210     -5414.5326457894  3.83E+00
   258 Broy./Diag. 0.80E-01    1.5     0.02333096     -5414.3634928822  1.69E-01
   259 Broy./Diag. 0.80E-01    1.5     0.01792484     -5416.7437935572 -2.38E+00
   260 Broy./Diag. 0.80E-01    1.5     0.02046893     -5418.0589691308 -1.32E+00
   261 Broy./Diag. 0.80E-01    1.5     0.02319463     -5419.2422885608 -1.18E+00
   262 Broy./Diag. 0.80E-01    1.5     0.01572731     -5418.7989422316  4.43E-01
   263 Broy./Diag. 0.80E-01    1.5     0.02624796     -5416.6941132280  2.10E+00
   264 Broy./Diag. 0.80E-01    1.5     0.05985302     -5416.1289791329  5.65E-01
   265 Broy./Diag. 0.80E-01    1.5     0.07805649     -5414.9466655383  1.18E+00
   266 Broy./Diag. 0.80E-01    1.5     0.02047720     -5418.4792675582 -3.53E+00
   267 Broy./Diag. 0.80E-01    1.5     0.02492812     -5417.4171873937  1.06E+00
   268 Broy./Diag. 0.80E-01    1.5     0.02593878     -5415.4263956560  1.99E+00
   269 Broy./Diag. 0.80E-01    1.5     0.02970832     -5414.3266697016  1.10E+00
   270 Broy./Diag. 0.80E-01    1.5     0.03978066     -5414.0404041554  2.86E-01
   271 Broy./Diag. 0.80E-01    1.5     0.05520291     -5413.8269026720  2.14E-01
   272 Broy./Diag. 0.80E-01    1.5     0.05980907     -5415.3389706307 -1.51E+00
   273 Broy./Diag. 0.80E-01    1.5     0.03746964     -5414.1803562821  1.16E+00
   274 Broy./Diag. 0.80E-01    1.5     0.02856256     -5414.8740547665 -6.94E-01
   275 Broy./Diag. 0.80E-01    1.5     0.04072888     -5415.6837544352 -8.10E-01
   276 Broy./Diag. 0.80E-01    1.5     0.02968704     -5418.4392407880 -2.76E+00
   277 Broy./Diag. 0.80E-01    1.5     0.06103585     -5415.4779110053  2.96E+00
   278 Broy./Diag. 0.80E-01    1.5     0.02058505     -5419.0777680080 -3.60E+00
   279 Broy./Diag. 0.80E-01    1.5     0.04575818     -5419.3498367298 -2.72E-01
   280 Broy./Diag. 0.80E-01    1.5     0.07256192     -5419.4349489803 -8.51E-02
   281 Broy./Diag. 0.80E-01    1.5     0.04990642     -5416.9133322947  2.52E+00
   282 Broy./Diag. 0.80E-01    1.5     0.06376050     -5418.3558412654 -1.44E+00
   283 Broy./Diag. 0.80E-01    1.5     0.01574461     -5416.6880622335  1.67E+00
   284 Broy./Diag. 0.80E-01    1.5     0.01949599     -5417.2841896908 -5.96E-01
   285 Broy./Diag. 0.80E-01    1.5     0.02303571     -5416.1379183314  1.15E+00
   286 Broy./Diag. 0.80E-01    1.5     0.02967319     -5416.7375445064 -6.00E-01
   287 Broy./Diag. 0.80E-01    1.5     0.05177628     -5417.1597322909 -4.22E-01
   288 Broy./Diag. 0.80E-01    1.5     0.05038147     -5414.4994787217  2.66E+00
   289 Broy./Diag. 0.80E-01    1.5     0.04315014     -5415.6585907922 -1.16E+00
   290 Broy./Diag. 0.80E-01    1.5     0.05204696     -5415.5520110875  1.07E-01
   291 Broy./Diag. 0.80E-01    1.5     0.11802776     -5414.4287711283  1.12E+00
   292 Broy./Diag. 0.80E-01    1.5     0.04931208     -5417.9244731637 -3.50E+00
   293 Broy./Diag. 0.80E-01    1.5     0.01834017     -5416.0542294495  1.87E+00
   294 Broy./Diag. 0.80E-01    1.5     0.07651890     -5415.5096696628  5.45E-01
   295 Broy./Diag. 0.80E-01    1.5     0.02818878     -5417.9437800428 -2.43E+00
   296 Broy./Diag. 0.80E-01    1.5     0.05411961     -5415.5150077210  2.43E+00
   297 Broy./Diag. 0.80E-01    1.5     0.01939885     -5417.8483402329 -2.33E+00
   298 Broy./Diag. 0.80E-01    1.5     0.01768843     -5417.1937456335  6.55E-01
   299 Broy./Diag. 0.80E-01    1.5     0.02075134     -5417.1497064712  4.40E-02
   300 Broy./Diag. 0.80E-01    1.5     0.00783185     -5417.7464266529 -5.97E-01
   301 Broy./Diag. 0.80E-01    1.5     0.01289003     -5417.9146367530 -1.68E-01
   302 Broy./Diag. 0.80E-01    1.5     0.01980576     -5419.6690515513 -1.75E+00
   303 Broy./Diag. 0.80E-01    1.5     0.03734870     -5419.7241889526 -5.51E-02
   304 Broy./Diag. 0.80E-01    1.5     0.02188429     -5418.0600877633  1.66E+00
   305 Broy./Diag. 0.80E-01    1.5     0.04218855     -5418.0946512152 -3.46E-02
   306 Broy./Diag. 0.80E-01    1.5     0.07411609     -5416.4424681713  1.65E+00
   307 Broy./Diag. 0.80E-01    1.5     0.15310920     -5419.2150218470 -2.77E+00
   308 Broy./Diag. 0.80E-01    1.5     0.15758418     -5417.2472536818  1.97E+00
   309 Broy./Diag. 0.80E-01    1.5     0.01015197     -5416.5286573932  7.19E-01
   310 Broy./Diag. 0.80E-01    1.5     0.02906032     -5416.3192582657  2.09E-01
   311 Broy./Diag. 0.80E-01    1.5     0.04639877     -5418.3385905755 -2.02E+00
   312 Broy./Diag. 0.80E-01    1.5     0.04056396     -5416.5058591997  1.83E+00
   313 Broy./Diag. 0.80E-01    1.5     0.11682728     -5414.2589954344  2.25E+00
   314 Broy./Diag. 0.80E-01    1.5     0.10469216     -5415.2631567087 -1.00E+00
   315 Broy./Diag. 0.80E-01    1.5     0.06665975     -5417.7769164192 -2.51E+00
   316 Broy./Diag. 0.80E-01    1.5     0.03090773     -5419.0258320005 -1.25E+00
   317 Broy./Diag. 0.80E-01    1.5     0.01867219     -5416.7209798042  2.30E+00
   318 Broy./Diag. 0.80E-01    1.5     0.04449783     -5418.5023056349 -1.78E+00
   319 Broy./Diag. 0.80E-01    1.5     0.07738062     -5419.3917140341 -8.89E-01
   320 Broy./Diag. 0.80E-01    1.5     0.04582531     -5417.5372599881  1.85E+00
   321 Broy./Diag. 0.80E-01    1.5     0.04012244     -5418.7200287817 -1.18E+00
   322 Broy./Diag. 0.80E-01    1.5     0.05688560     -5417.2364391505  1.48E+00
   323 Broy./Diag. 0.80E-01    1.5     0.08142508     -5420.5797971085 -3.34E+00
   324 Broy./Diag. 0.80E-01    1.5     0.07206191     -5418.9223170712  1.66E+00
   325 Broy./Diag. 0.80E-01    1.5     0.21846169     -5413.9102805458  5.01E+00
   326 Broy./Diag. 0.80E-01    1.5     0.08112337     -5418.0374040431 -4.13E+00
   327 Broy./Diag. 0.80E-01    1.5     0.00704645     -5419.5449406288 -1.51E+00
   328 Broy./Diag. 0.80E-01    1.5     0.10372949     -5419.6604831392 -1.16E-01
   329 Broy./Diag. 0.80E-01    1.5     0.04068476     -5419.5830091824  7.75E-02
   330 Broy./Diag. 0.80E-01    1.5     0.02400981     -5418.8056078668  7.77E-01
   331 Broy./Diag. 0.80E-01    1.5     0.01927432     -5419.7146148098 -9.09E-01
   332 Broy./Diag. 0.80E-01    1.5     0.06215640     -5418.9527603687  7.62E-01
   333 Broy./Diag. 0.80E-01    1.5     0.03230075     -5418.0465908203  9.06E-01
   334 Broy./Diag. 0.80E-01    1.5     0.19487976     -5420.2034610178 -2.16E+00
   335 Broy./Diag. 0.80E-01    1.5     0.11831513     -5418.0320378256  2.17E+00
   336 Broy./Diag. 0.80E-01    1.5     0.12828025     -5419.1254196695 -1.09E+00
   337 Broy./Diag. 0.80E-01    1.5     0.04254626     -5414.2117860763  4.91E+00
   338 Broy./Diag. 0.80E-01    1.5     0.07098227     -5419.6607883143 -5.45E+00
   339 Broy./Diag. 0.80E-01    1.5     0.01851884     -5419.3002851937  3.61E-01
   340 Broy./Diag. 0.80E-01    1.5     0.03728424     -5419.6453343254 -3.45E-01
   341 Broy./Diag. 0.80E-01    1.5     0.06411691     -5418.2663246341  1.38E+00
   342 Broy./Diag. 0.80E-01    1.5     0.01786487     -5416.1707856232  2.10E+00
   343 Broy./Diag. 0.80E-01    1.5     0.02871764     -5417.9202471204 -1.75E+00
   344 Broy./Diag. 0.80E-01    1.5     0.09467246     -5420.0053567913 -2.09E+00
   345 Broy./Diag. 0.80E-01    1.5     0.11464980     -5419.9825821587  2.28E-02
   346 Broy./Diag. 0.80E-01    1.5     0.00548962     -5417.7009600761  2.28E+00
   347 Broy./Diag. 0.80E-01    1.5     0.01230330     -5417.2323292080  4.69E-01
   348 Broy./Diag. 0.80E-01    1.5     0.00680739     -5416.5300684967  7.02E-01
   349 Broy./Diag. 0.80E-01    1.5     0.00548127     -5417.2000292276 -6.70E-01
   350 Broy./Diag. 0.80E-01    1.5     0.03986881     -5416.8945954893  3.05E-01
   351 Broy./Diag. 0.80E-01    1.5     0.11473740     -5417.2726862708 -3.78E-01
   352 Broy./Diag. 0.80E-01    1.5     0.03459230     -5416.8426396287  4.30E-01
   353 Broy./Diag. 0.80E-01    1.5     0.03960455     -5417.9864287536 -1.14E+00
   354 Broy./Diag. 0.80E-01    1.5     0.14073838     -5416.0895963308  1.90E+00
   355 Broy./Diag. 0.80E-01    1.5     0.05150314     -5417.8078423683 -1.72E+00
   356 Broy./Diag. 0.80E-01    1.5     0.01692605     -5419.2551349864 -1.45E+00
   357 Broy./Diag. 0.80E-01    1.5     0.03796662     -5418.9707535192  2.84E-01
   358 Broy./Diag. 0.80E-01    1.5     0.00873026     -5418.0827073869  8.88E-01
   359 Broy./Diag. 0.80E-01    1.5     0.00388485     -5418.0109717549  7.17E-02
   360 Broy./Diag. 0.80E-01    1.5     0.05398129     -5418.4630952828 -4.52E-01
   361 Broy./Diag. 0.80E-01    1.5     0.09083940     -5420.1084166814 -1.65E+00
   362 Broy./Diag. 0.80E-01    1.5     0.07150714     -5419.1050906010  1.00E+00
   363 Broy./Diag. 0.80E-01    1.5     0.01178338     -5417.5903040474  1.51E+00
   364 Broy./Diag. 0.80E-01    1.5     0.08444449     -5417.9795166144 -3.89E-01
   365 Broy./Diag. 0.80E-01    1.6     0.03338962     -5420.8554162060 -2.88E+00
   366 Broy./Diag. 0.80E-01    1.5     0.01839496     -5420.3131103095  5.42E-01
   367 Broy./Diag. 0.80E-01    1.5     0.03137009     -5421.0588436376 -7.46E-01
   368 Broy./Diag. 0.80E-01    1.5     0.04968372     -5419.6482832098  1.41E+00
   369 Broy./Diag. 0.80E-01    1.5     0.02414575     -5418.2827579959  1.37E+00
   370 Broy./Diag. 0.80E-01    1.5     0.03367075     -5416.8094204384  1.47E+00
   371 Broy./Diag. 0.80E-01    1.5     0.16893719     -5412.6526265007  4.16E+00
   372 Broy./Diag. 0.80E-01    1.5     0.18100247     -5412.1008128943  5.52E-01
   373 Broy./Diag. 0.80E-01    1.5     0.01260828     -5415.6277475311 -3.53E+00
   374 Broy./Diag. 0.80E-01    1.5     0.05837490     -5416.4631523220 -8.35E-01
   375 Broy./Diag. 0.80E-01    1.5     0.01784591     -5422.3184321232 -5.86E+00
   376 Broy./Diag. 0.80E-01    1.5     0.01007104     -5421.4494579000  8.69E-01
