 DBCSR| CPU Multiplication driver                                           XSMM
 DBCSR| Multrec recursion limit                                              512
 DBCSR| Multiplication stack size                                           1000
 DBCSR| Maximum elements for images                                    UNLIMITED
 DBCSR| Multiplicative factor virtual images                                   1
 DBCSR| Use multiplication densification                                       T
 DBCSR| Multiplication size stacks                                             3
 DBCSR| Use memory pool for CPU allocation                                     F
 DBCSR| Number of 3D layers                                               SINGLE
 DBCSR| Use MPI memory allocation                                              F
 DBCSR| Use RMA algorithm                                                      F
 DBCSR| Use Communication thread                                               T
 DBCSR| Communication thread load                                             87
 DBCSR| MPI: My node id                                                        0
 DBCSR| MPI: Number of nodes                                                 128
 DBCSR| OMP: Current number of threads                                         1
 DBCSR| OMP: Max number of threads                                             1
 DBCSR| Split modifier for TAS multiplication algorithm                  1.0E+00


  **** **** ******  **  PROGRAM STARTED AT               2023-01-21 12:42:24.059
 ***** ** ***  *** **   PROGRAM STARTED ON                             nid001542
 **    ****   ******    PROGRAM STARTED BY                                cahart
 ***** **    ** ** **   PROGRAM PROCESS ID                                112001
  **** **  *******  **  PROGRAM STARTED IN /mnt/lustre/a2fs-work2/work/e05/e05/c
                                           ahart/postdoc/masters/yike/Pt3Ni/chri
                                           s_struct/supercell_2x2x2/archer2/opti
                                           mise/magnetization-multiplicity/fm_sc
                                           f-5e-7/search/16_8

 CP2K| version string:                                       CP2K version 2022.1
 CP2K| source code revision number:                                  git:2caeb6f
 CP2K| cp2kflags: omp libint fftw3 libxc elpa parallel mpi3 scalapack xsmm plume
 CP2K|            d2 mkl
 CP2K| is freely available from                            https://www.cp2k.org/
 CP2K| Program compiled at                          Mon 16 Jan 11:08:26 GMT 2023
 CP2K| Program compiled on                                                  ln01
 CP2K| Program compiled for                                              ARCHER2
 CP2K| Data directory path      /work/y07/shared/apps/core/cp2k/cp2k-2022.1/data
 CP2K| Input file name                                                  cp2k.inp

 GLOBAL| Force Environment number                                              1
 GLOBAL| Basis set file name                                        BASIS_MOLOPT
 GLOBAL| Potential file name                                      GTH_POTENTIALS
 GLOBAL| MM Potential file name                                     MM_POTENTIAL
 GLOBAL| Coordinate file name                                          input.xyz
 GLOBAL| Method name                                                        CP2K
 GLOBAL| Project name                                                      Pt3Ni
 GLOBAL| Run type                                                         ENERGY
 GLOBAL| FFT library                                                       FFTW3
 GLOBAL| Diagonalization library                                            ELPA
 GLOBAL| Minimum number of eigenvectors for ELPA usage                        16
 GLOBAL| Orthonormality check for eigenvectors                          DISABLED
 GLOBAL| Matrix multiplication library                                 ScaLAPACK
 GLOBAL| All-to-all communication in single precision                          F
 GLOBAL| FFTs using library dependent lengths                                  F
 GLOBAL| Grid backend                                                       AUTO
 GLOBAL| Global print level                                               MEDIUM
 GLOBAL| MPI I/O enabled                                                       T
 GLOBAL| Total number of message passing processes                           128
 GLOBAL| Number of threads for this process                                    1
 GLOBAL| This output is from process                                           0
 GLOBAL| Stack size for threads created by OpenMP (OMP_STACKSIZE)        default
 GLOBAL| CPU model name                          AMD EPYC 7742 64-Core Processor
 GLOBAL| CPUID                                                              1002

 MEMORY| system memory details [Kb]
 MEMORY|                        rank 0           min           max       average
 MEMORY| MemTotal            263528084     263528084     263528084     263528084
 MEMORY| MemFree             238562672     238562672     238562672     238562672
 MEMORY| Buffers                 24524         24524         24524         24524
 MEMORY| Cached                 929244        929244        929244        929244
 MEMORY| Slab                  1703128       1703128       1703128       1703128
 MEMORY| SReclaimable           107448        107448        107448        107448
 MEMORY| MemLikelyFree       239623888     239623888     239623888     239623888


 *** Fundamental physical constants (SI units) ***

 *** Literature: B. J. Mohr and B. N. Taylor,
 ***             CODATA recommended values of the fundamental physical
 ***             constants: 2006, Web Version 5.1
 ***             http://physics.nist.gov/constants

 Speed of light in vacuum [m/s]                             2.99792458000000E+08
 Magnetic constant or permeability of vacuum [N/A**2]       1.25663706143592E-06
 Electric constant or permittivity of vacuum [F/m]          8.85418781762039E-12
 Planck constant (h) [J*s]                                  6.62606896000000E-34
 Planck constant (h-bar) [J*s]                              1.05457162825177E-34
 Elementary charge [C]                                      1.60217648700000E-19
 Electron mass [kg]                                         9.10938215000000E-31
 Electron g factor [ ]                                     -2.00231930436220E+00
 Proton mass [kg]                                           1.67262163700000E-27
 Fine-structure constant                                    7.29735253760000E-03
 Rydberg constant [1/m]                                     1.09737315685270E+07
 Avogadro constant [1/mol]                                  6.02214179000000E+23
 Boltzmann constant [J/K]                                   1.38065040000000E-23
 Atomic mass unit [kg]                                      1.66053878200000E-27
 Bohr radius [m]                                            5.29177208590000E-11

 *** Conversion factors ***

 [u] -> [a.u.]                                              1.82288848426455E+03
 [Angstrom] -> [Bohr] = [a.u.]                              1.88972613288564E+00
 [a.u.] = [Bohr] -> [Angstrom]                              5.29177208590000E-01
 [a.u.] -> [s]                                              2.41888432650478E-17
 [a.u.] -> [fs]                                             2.41888432650478E-02
 [a.u.] -> [J]                                              4.35974393937059E-18
 [a.u.] -> [N]                                              8.23872205491840E-08
 [a.u.] -> [K]                                              3.15774647902944E+05
 [a.u.] -> [kJ/mol]                                         2.62549961709828E+03
 [a.u.] -> [kcal/mol]                                       6.27509468713739E+02
 [a.u.] -> [Pa]                                             2.94210107994716E+13
 [a.u.] -> [bar]                                            2.94210107994716E+08
 [a.u.] -> [atm]                                            2.90362800883016E+08
 [a.u.] -> [eV]                                             2.72113838565563E+01
 [a.u.] -> [Hz]                                             6.57968392072181E+15
 [a.u.] -> [1/cm] (wave numbers)                            2.19474631370540E+05
 [a.u./Bohr**2] -> [1/cm]                                   5.14048714338585E+03
 

 CELL_TOP| Volume [angstrom^3]:                                       456.533000
 CELL_TOP| Vector a [angstrom     7.700     0.000     0.000   |a| =     7.700000
 CELL_TOP| Vector b [angstrom     0.000     7.700     0.000   |b| =     7.700000
 CELL_TOP| Vector c [angstrom     0.000     0.000     7.700   |c| =     7.700000
 CELL_TOP| Angle (b,c), alpha [degree]:                                90.000000
 CELL_TOP| Angle (a,c), beta  [degree]:                                90.000000
 CELL_TOP| Angle (a,b), gamma [degree]:                                90.000000
 CELL_TOP| Numerically orthorhombic:                                         YES

 GENERATE|  Preliminary Number of Bonds generated:                             0
 GENERATE|  Achieved consistency in connectivity generation.

 CELL| Volume [angstrom^3]:                                           456.533000
 CELL| Vector a [angstrom]:       7.700     0.000     0.000   |a| =     7.700000
 CELL| Vector b [angstrom]:       0.000     7.700     0.000   |b| =     7.700000
 CELL| Vector c [angstrom]:       0.000     0.000     7.700   |c| =     7.700000
 CELL| Angle (b,c), alpha [degree]:                                    90.000000
 CELL| Angle (a,c), beta  [degree]:                                    90.000000
 CELL| Angle (a,b), gamma [degree]:                                    90.000000
 CELL| Numerically orthorhombic:                                             YES

 CELL_REF| Volume [angstrom^3]:                                       456.533000
 CELL_REF| Vector a [angstrom     7.700     0.000     0.000   |a| =     7.700000
 CELL_REF| Vector b [angstrom     0.000     7.700     0.000   |b| =     7.700000
 CELL_REF| Vector c [angstrom     0.000     0.000     7.700   |c| =     7.700000
 CELL_REF| Angle (b,c), alpha [degree]:                                90.000000
 CELL_REF| Angle (a,c), beta  [degree]:                                90.000000
 CELL_REF| Angle (a,b), gamma [degree]:                                90.000000
 CELL_REF| Numerically orthorhombic:                                         YES

 *** WARNING in cryssym.F:165 :: Symmetry library SPGLIB not available ***


 *******************************************************************************
                                    Kpoints
 *******************************************************************************
 BRILLOUIN| K-point scheme                                        Monkhorst-Pack
 BRILLOUIN| K-Point grid                                             1    1    1
 BRILLOUIN| Accuracy in Symmetry determination                      0.100000E-05
 BRILLOUIN| K-Point point group symmetrization                               OFF
 BRILLOUIN| Wavefunction type                                            COMPLEX
 BRILLOUIN| List of Kpoints [2 Pi/Bohr]                                        1
 BRILLOUIN| Number           Weight            X              Y              Z
 BRILLOUIN|     1           1.00000        0.00000        0.00000        0.00000
 *******************************************************************************

 *******************************************************************************
 *******************************************************************************
 **                                                                           **
 **     #####                         ##              ##                      **
 **    ##   ##            ##          ##              ##                      **
 **   ##     ##                       ##            ######                    **
 **   ##     ##  ##   ##  ##   #####  ##  ##   ####   ##    #####    #####    **
 **   ##     ##  ##   ##  ##  ##      ## ##   ##      ##   ##   ##  ##   ##   **
 **   ##  ## ##  ##   ##  ##  ##      ####     ###    ##   ######   ######    **
 **    ##  ###   ##   ##  ##  ##      ## ##      ##   ##   ##       ##        **
 **     #######   #####   ##   #####  ##  ##  ####    ##    #####   ##        **
 **           ##                                                    ##        **
 **                                                                           **
 **                                                ... make the atoms dance   **
 **                                                                           **
 **            Copyright (C) by CP2K developers group (2000-2022)             **
 **                      J. Chem. Phys. 152, 194103 (2020)                    **
 **                                                                           **
 *******************************************************************************

 *** WARNING in qs_environment.F:1478 :: Kpoints: Different number of MOs   ***
 *** requested. The number of beta MOs will be set to the number alpha MOs. ***


 DFT| Spin unrestricted (spin-polarized) Kohn-Sham calculation               UKS
 DFT| Multiplicity                                                            25
 DFT| Number of spin states                                                    2
 DFT| Charge                                                                   0
 DFT| Self-interaction correction (SIC)                                       NO
 DFT| Cutoffs: density                                              1.000000E-10
 DFT|          gradient                                             1.000000E-10
 DFT|          tau                                                  1.000000E-10
 DFT|          cutoff_smoothing_range                               0.000000E+00
 DFT| XC density smoothing                                                  NONE
 DFT| XC derivatives                                                          PW

 FUNCTIONAL| PBE:
 FUNCTIONAL| J.P.Perdew, K.Burke, M.Ernzerhof, Phys. Rev. Letter, vol. 77, n 18,
 FUNCTIONAL|  pp. 3865-3868, (1996){spin polarized}                             


 QS| Method:                                                                 GPW
 QS| Density plane wave grid type                        NON-SPHERICAL FULLSPACE
 QS| Number of grid levels:                                                    4
 QS| Density cutoff [a.u.]:                                                250.0
 QS| Multi grid cutoff [a.u.]: 1) grid level                               250.0
 QS|                           2) grid level                                83.3
 QS|                           3) grid level                                27.8
 QS|                           4) grid level                                 9.3
 QS| Grid level progression factor:                                          3.0
 QS| Relative density cutoff [a.u.]:                                        30.0
 QS| Interaction thresholds: eps_pgf_orb:                                1.0E-07
 QS|                         eps_filter_matrix:                          0.0E+00
 QS|                         eps_core_charge:                            1.0E-16
 QS|                         eps_rho_gspace:                             1.0E-14
 QS|                         eps_rho_rspace:                             1.0E-14
 QS|                         eps_gvg_rspace:                             1.0E-07
 QS|                         eps_ppl:                                    1.0E-02
 QS|                         eps_ppnl:                                   1.0E-09


 ATOMIC KIND INFORMATION

  1. Atomic kind: Ni                                    Number of atoms:       8

     Orbital Basis Set                                        DZVP-MOLOPT-SR-GTH

       Number of orbital shell sets:                                           1
       Number of orbital shells:                                               8
       Number of primitive Cartesian functions:                                6
       Number of Cartesian basis functions:                                   31
       Number of spherical basis functions:                                   26
       Norm type:                                                              2

       Normalised Cartesian orbitals:

                        Set   Shell   Orbital            Exponent    Coefficient

                          1       1    2s               10.077428      -0.684558
                                                         5.847736      -0.844524
                                                         2.494033       1.088856
                                                         0.988355       0.395503
                                                         0.344978       0.010224
                                                         0.099466      -0.003250

                          1       2    3s               10.077428       0.096747
                                                         5.847736       0.162504
                                                         2.494033      -0.297192
                                                         0.988355      -0.319752
                                                         0.344978       0.088318
                                                         0.099466       0.118587

                          1       3    4s               10.077428       0.036437
                                                         5.847736      -0.381480
                                                         2.494033       0.003759
                                                         0.988355      -1.048256
                                                         0.344978       0.855825
                                                         0.099466      -0.176350

                          1       4    3px              10.077428      -3.133913
                                                         5.847736       3.027656
                                                         2.494033       2.353227
                                                         0.988355       0.554184
                                                         0.344978       0.019462
                                                         0.099466      -0.000291
                          1       4    3py              10.077428      -3.133913
                                                         5.847736       3.027656
                                                         2.494033       2.353227
                                                         0.988355       0.554184
                                                         0.344978       0.019462
                                                         0.099466      -0.000291
                          1       4    3pz              10.077428      -3.133913
                                                         5.847736       3.027656
                                                         2.494033       2.353227
                                                         0.988355       0.554184
                                                         0.344978       0.019462
                                                         0.099466      -0.000291

                          1       5    4px              10.077428      -0.112729
                                                         5.847736      -0.114008
                                                         2.494033      -0.347303
                                                         0.988355      -0.110323
                                                         0.344978       0.154096
                                                         0.099466       0.058386
                          1       5    4py              10.077428      -0.112729
                                                         5.847736      -0.114008
                                                         2.494033      -0.347303
                                                         0.988355      -0.110323
                                                         0.344978       0.154096
                                                         0.099466       0.058386
                          1       5    4pz              10.077428      -0.112729
                                                         5.847736      -0.114008
                                                         2.494033      -0.347303
                                                         0.988355      -0.110323
                                                         0.344978       0.154096
                                                         0.099466       0.058386

                          1       6    4dx2             10.077428       8.232726
                                                         5.847736       9.105758
                                                         2.494033       2.849835
                                                         0.988355       0.554319
                                                         0.344978       0.067245
                                                         0.099466       0.001940
                          1       6    4dxy             10.077428      14.259500
                                                         5.847736      15.771636
                                                         2.494033       4.936060
                                                         0.988355       0.960109
                                                         0.344978       0.116472
                                                         0.099466       0.003360
                          1       6    4dxz             10.077428      14.259500
                                                         5.847736      15.771636
                                                         2.494033       4.936060
                                                         0.988355       0.960109
                                                         0.344978       0.116472
                                                         0.099466       0.003360
                          1       6    4dy2             10.077428       8.232726
                                                         5.847736       9.105758
                                                         2.494033       2.849835
                                                         0.988355       0.554319
                                                         0.344978       0.067245
                                                         0.099466       0.001940
                          1       6    4dyz             10.077428      14.259500
                                                         5.847736      15.771636
                                                         2.494033       4.936060
                                                         0.988355       0.960109
                                                         0.344978       0.116472
                                                         0.099466       0.003360
                          1       6    4dz2             10.077428       8.232726
                                                         5.847736       9.105758
                                                         2.494033       2.849835
                                                         0.988355       0.554319
                                                         0.344978       0.067245
                                                         0.099466       0.001940

                          1       7    5dx2             10.077428      -2.715373
                                                         5.847736      -4.020640
                                                         2.494033      -1.397569
                                                         0.988355      -0.076143
                                                         0.344978       0.033435
                                                         0.099466       0.026032
                          1       7    5dxy             10.077428      -4.703164
                                                         5.847736      -6.963952
                                                         2.494033      -2.420661
                                                         0.988355      -0.131883
                                                         0.344978       0.057911
                                                         0.099466       0.045088
                          1       7    5dxz             10.077428      -4.703164
                                                         5.847736      -6.963952
                                                         2.494033      -2.420661
                                                         0.988355      -0.131883
                                                         0.344978       0.057911
                                                         0.099466       0.045088
                          1       7    5dy2             10.077428      -2.715373
                                                         5.847736      -4.020640
                                                         2.494033      -1.397569
                                                         0.988355      -0.076143
                                                         0.344978       0.033435
                                                         0.099466       0.026032
                          1       7    5dyz             10.077428      -4.703164
                                                         5.847736      -6.963952
                                                         2.494033      -2.420661
                                                         0.988355      -0.131883
                                                         0.344978       0.057911
                                                         0.099466       0.045088
                          1       7    5dz2             10.077428      -2.715373
                                                         5.847736      -4.020640
                                                         2.494033      -1.397569
                                                         0.988355      -0.076143
                                                         0.344978       0.033435
                                                         0.099466       0.026032

                          1       8    5fx3             10.077428      -0.467694
                                                         5.847736       0.618100
                                                         2.494033       0.066069
                                                         0.988355       0.262898
                                                         0.344978       0.004720
                                                         0.099466       0.007748
                          1       8    5fx2y            10.077428      -1.045795
                                                         5.847736       1.382114
                                                         2.494033       0.147734
                                                         0.988355       0.587859
                                                         0.344978       0.010555
                                                         0.099466       0.017325
                          1       8    5fx2z            10.077428      -1.045795
                                                         5.847736       1.382114
                                                         2.494033       0.147734
                                                         0.988355       0.587859
                                                         0.344978       0.010555
                                                         0.099466       0.017325
                          1       8    5fxy2            10.077428      -1.045795
                                                         5.847736       1.382114
                                                         2.494033       0.147734
                                                         0.988355       0.587859
                                                         0.344978       0.010555
                                                         0.099466       0.017325
                          1       8    5fxyz            10.077428      -1.811371
                                                         5.847736       2.393892
                                                         2.494033       0.255883
                                                         0.988355       1.018201
                                                         0.344978       0.018282
                                                         0.099466       0.030008
                          1       8    5fxz2            10.077428      -1.045795
                                                         5.847736       1.382114
                                                         2.494033       0.147734
                                                         0.988355       0.587859
                                                         0.344978       0.010555
                                                         0.099466       0.017325
                          1       8    5fy3             10.077428      -0.467694
                                                         5.847736       0.618100
                                                         2.494033       0.066069
                                                         0.988355       0.262898
                                                         0.344978       0.004720
                                                         0.099466       0.007748
                          1       8    5fy2z            10.077428      -1.045795
                                                         5.847736       1.382114
                                                         2.494033       0.147734
                                                         0.988355       0.587859
                                                         0.344978       0.010555
                                                         0.099466       0.017325
                          1       8    5fyz2            10.077428      -1.045795
                                                         5.847736       1.382114
                                                         2.494033       0.147734
                                                         0.988355       0.587859
                                                         0.344978       0.010555
                                                         0.099466       0.017325
                          1       8    5fz3             10.077428      -0.467694
                                                         5.847736       0.618100
                                                         2.494033       0.066069
                                                         0.988355       0.262898
                                                         0.344978       0.004720
                                                         0.099466       0.007748

       Atomic covalent radius [Angstrom]:                                  1.150

       Atomic van der Waals radius [Angstrom]:                             1.630

     GTH Potential information for                                   GTH-PBE-q18

       Description:                       Goedecker-Teter-Hutter pseudopotential
                                           Goedecker et al., PRB 54, 1703 (1996)
                                          Hartwigsen et al., PRB 58, 3641 (1998)
                                                      Krack, TCA 114, 145 (2005)

       Gaussian exponent of the core charge distribution:               4.081633
       Electronic configuration (s p d ...):                           4   6   8

       Parameters of the local part of the GTH pseudopotential:

                          rloc        C1          C2          C3          C4
                        0.350000    2.102166    0.648484

       Parameters of the non-local part of the GTH pseudopotential:

                   l      r(l)      h(i,j,l)

                   0    0.261295    0.622658    9.970227
                                    9.970227  -12.871507
                   1    0.224253  -11.142708   12.429566
                                   12.429566  -14.706861
                   2    0.215348  -12.628146

  2. Atomic kind: Pt                                    Number of atoms:      24

     Orbital Basis Set                                        DZVP-MOLOPT-SR-GTH

       Number of orbital shell sets:                                           1
       Number of orbital shells:                                               8
       Number of primitive Cartesian functions:                                6
       Number of Cartesian basis functions:                                   31
       Number of spherical basis functions:                                   26
       Norm type:                                                              2

       Normalised Cartesian orbitals:

                        Set   Shell   Orbital            Exponent    Coefficient

                          1       1    2s                3.630668      -0.465500
                                                         3.114659       1.833739
                                                         1.999981      -1.065057
                                                         0.885340      -0.082598
                                                         0.330796      -0.055321
                                                         0.105770      -0.086847

                          1       2    3s                3.630668      -0.135752
                                                         3.114659       0.957679
                                                         1.999981      -0.689189
                                                         0.885340      -0.354326
                                                         0.330796       0.034544
                                                         0.105770       0.142189

                          1       3    4s                3.630668       0.505359
                                                         3.114659      -0.006270
                                                         1.999981      -0.343543
                                                         0.885340       1.287020
                                                         0.330796      -0.969575
                                                         0.105770       0.202315

                          1       4    3px               3.630668       3.197609
                                                         3.114659      -1.334416
                                                         1.999981      -1.492782
                                                         0.885340      -0.792435
                                                         0.330796      -0.047636
                                                         0.105770       0.000678
                          1       4    3py               3.630668       3.197609
                                                         3.114659      -1.334416
                                                         1.999981      -1.492782
                                                         0.885340      -0.792435
                                                         0.330796      -0.047636
                                                         0.105770       0.000678
                          1       4    3pz               3.630668       3.197609
                                                         3.114659      -1.334416
                                                         1.999981      -1.492782
                                                         0.885340      -0.792435
                                                         0.330796      -0.047636
                                                         0.105770       0.000678

                          1       5    4px               3.630668      -0.376239
                                                         3.114659       0.453823
                                                         1.999981      -0.390177
                                                         0.885340      -0.279003
                                                         0.330796       0.102288
                                                         0.105770       0.074263
                          1       5    4py               3.630668      -0.376239
                                                         3.114659       0.453823
                                                         1.999981      -0.390177
                                                         0.885340      -0.279003
                                                         0.330796       0.102288
                                                         0.105770       0.074263
                          1       5    4pz               3.630668      -0.376239
                                                         3.114659       0.453823
                                                         1.999981      -0.390177
                                                         0.885340      -0.279003
                                                         0.330796       0.102288
                                                         0.105770       0.074263

                          1       6    4dx2              3.630668      -4.869087
                                                         3.114659       3.422358
                                                         1.999981       0.942384
                                                         0.885340       0.638592
                                                         0.330796       0.100711
                                                         0.105770       0.004297
                          1       6    4dxy              3.630668      -8.433506
                                                         3.114659       5.927699
                                                         1.999981       1.632257
                                                         0.885340       1.106073
                                                         0.330796       0.174436
                                                         0.105770       0.007443
                          1       6    4dxz              3.630668      -8.433506
                                                         3.114659       5.927699
                                                         1.999981       1.632257
                                                         0.885340       1.106073
                                                         0.330796       0.174436
                                                         0.105770       0.007443
                          1       6    4dy2              3.630668      -4.869087
                                                         3.114659       3.422358
                                                         1.999981       0.942384
                                                         0.885340       0.638592
                                                         0.330796       0.100711
                                                         0.105770       0.004297
                          1       6    4dyz              3.630668      -8.433506
                                                         3.114659       5.927699
                                                         1.999981       1.632257
                                                         0.885340       1.106073
                                                         0.330796       0.174436
                                                         0.105770       0.007443
                          1       6    4dz2              3.630668      -4.869087
                                                         3.114659       3.422358
                                                         1.999981       0.942384
                                                         0.885340       0.638592
                                                         0.330796       0.100711
                                                         0.105770       0.004297

                          1       7    5dx2              3.630668       2.000513
                                                         3.114659      -0.906481
                                                         1.999981      -0.863477
                                                         0.885340      -0.429902
                                                         0.330796      -0.023611
                                                         0.105770       0.032414
                          1       7    5dxy              3.630668       3.464990
                                                         3.114659      -1.570070
                                                         1.999981      -1.495586
                                                         0.885340      -0.744611
                                                         0.330796      -0.040896
                                                         0.105770       0.056142
                          1       7    5dxz              3.630668       3.464990
                                                         3.114659      -1.570070
                                                         1.999981      -1.495586
                                                         0.885340      -0.744611
                                                         0.330796      -0.040896
                                                         0.105770       0.056142
                          1       7    5dy2              3.630668       2.000513
                                                         3.114659      -0.906481
                                                         1.999981      -0.863477
                                                         0.885340      -0.429902
                                                         0.330796      -0.023611
                                                         0.105770       0.032414
                          1       7    5dyz              3.630668       3.464990
                                                         3.114659      -1.570070
                                                         1.999981      -1.495586
                                                         0.885340      -0.744611
                                                         0.330796      -0.040896
                                                         0.105770       0.056142
                          1       7    5dz2              3.630668       2.000513
                                                         3.114659      -0.906481
                                                         1.999981      -0.863477
                                                         0.885340      -0.429902
                                                         0.330796      -0.023611
                                                         0.105770       0.032414

                          1       8    5fx3              3.630668       1.265943
                                                         3.114659      -1.633790
                                                         1.999981      -0.318265
                                                         0.885340      -0.300856
                                                         0.330796      -0.100756
                                                         0.105770       0.007484
                          1       8    5fx2y             3.630668       2.830734
                                                         3.114659      -3.653265
                                                         1.999981      -0.711663
                                                         0.885340      -0.672734
                                                         0.330796      -0.225296
                                                         0.105770       0.016736
                          1       8    5fx2z             3.630668       2.830734
                                                         3.114659      -3.653265
                                                         1.999981      -0.711663
                                                         0.885340      -0.672734
                                                         0.330796      -0.225296
                                                         0.105770       0.016736
                          1       8    5fxy2             3.630668       2.830734
                                                         3.114659      -3.653265
                                                         1.999981      -0.711663
                                                         0.885340      -0.672734
                                                         0.330796      -0.225296
                                                         0.105770       0.016736
                          1       8    5fxyz             3.630668       4.902974
                                                         3.114659      -6.327641
                                                         1.999981      -1.232636
                                                         0.885340      -1.165210
                                                         0.330796      -0.390225
                                                         0.105770       0.028987
                          1       8    5fxz2             3.630668       2.830734
                                                         3.114659      -3.653265
                                                         1.999981      -0.711663
                                                         0.885340      -0.672734
                                                         0.330796      -0.225296
                                                         0.105770       0.016736
                          1       8    5fy3              3.630668       1.265943
                                                         3.114659      -1.633790
                                                         1.999981      -0.318265
                                                         0.885340      -0.300856
                                                         0.330796      -0.100756
                                                         0.105770       0.007484
                          1       8    5fy2z             3.630668       2.830734
                                                         3.114659      -3.653265
                                                         1.999981      -0.711663
                                                         0.885340      -0.672734
                                                         0.330796      -0.225296
                                                         0.105770       0.016736
                          1       8    5fyz2             3.630668       2.830734
                                                         3.114659      -3.653265
                                                         1.999981      -0.711663
                                                         0.885340      -0.672734
                                                         0.330796      -0.225296
                                                         0.105770       0.016736
                          1       8    5fz3              3.630668       1.265943
                                                         3.114659      -1.633790
                                                         1.999981      -0.318265
                                                         0.885340      -0.300856
                                                         0.330796      -0.100756
                                                         0.105770       0.007484

       Atomic covalent radius [Angstrom]:                                  1.300

       Atomic van der Waals radius [Angstrom]:                             1.750

     GTH Potential information for                                   GTH-PBE-q18

       Description:                       Goedecker-Teter-Hutter pseudopotential
                                           Goedecker et al., PRB 54, 1703 (1996)
                                          Hartwigsen et al., PRB 58, 3641 (1998)
                                                      Krack, TCA 114, 145 (2005)

       Gaussian exponent of the core charge distribution:               2.000000
       Electronic configuration (s p d ...):                           3   6   9

       Parameters of the local part of the GTH pseudopotential:

                          rloc        C1          C2          C3          C4
                        0.500000    8.814323   -0.292509

       Parameters of the non-local part of the GTH pseudopotential:

                   l      r(l)      h(i,j,l)

                   0    0.298002   -5.968385   24.212900  -13.789679
                                   24.212900  -53.687634   35.604799
                                  -13.789679   35.604799  -28.260433
                   1    0.360172   -6.668659    7.170659    0.766904
                                    7.170659   -7.207661   -1.814825
                                    0.766904   -1.814825    1.289806
                   2    0.340532   -8.589905    9.410122
                                    9.410122  -10.670075


 MOLECULE KIND INFORMATION


 All atoms are their own molecule, skipping detailed information


 TOTAL NUMBERS AND MAXIMUM NUMBERS

  Total number of            - Atomic kinds:                                   2
                             - Atoms:                                         32
                             - Shell sets:                                    32
                             - Shells:                                       256
                             - Primitive Cartesian functions:                192
                             - Cartesian basis functions:                    992
                             - Spherical basis functions:                    832

  Maximum angular momentum of- Orbital basis functions:                        3
                             - Local part of the GTH pseudopotential:          2
                             - Non-local part of the GTH pseudopotential:      5


 MODULE QUICKSTEP:  ATOMIC COORDINATES IN angstrom

 Atom  Kind  Element       X           Y           Z          Z(eff)       Mass
    1   1 Ni  28       0.000000    0.000000    0.000000      18.0000     58.6934
    2   2 Pt  78       1.925000    1.925000    0.000000      18.0000    195.0840
    3   2 Pt  78       1.925000    0.000000    1.925000      18.0000    195.0840
    4   2 Pt  78       0.000000    1.925000    1.925000      18.0000    195.0840
    5   1 Ni  28       0.000000    0.000000    3.850000      18.0000     58.6934
    6   2 Pt  78       1.925000    1.925000    3.850000      18.0000    195.0840
    7   2 Pt  78       1.925000    0.000000    5.775000      18.0000    195.0840
    8   2 Pt  78       0.000000    1.925000    5.775000      18.0000    195.0840
    9   1 Ni  28       0.000000    3.850000    0.000000      18.0000     58.6934
   10   2 Pt  78       1.925000    5.775000    0.000000      18.0000    195.0840
   11   2 Pt  78       1.925000    3.850000    1.925000      18.0000    195.0840
   12   2 Pt  78       0.000000    5.775000    1.925000      18.0000    195.0840
   13   1 Ni  28       0.000000    3.850000    3.850000      18.0000     58.6934
   14   2 Pt  78       1.925000    5.775000    3.850000      18.0000    195.0840
   15   2 Pt  78       1.925000    3.850000    5.775000      18.0000    195.0840
   16   2 Pt  78       0.000000    5.775000    5.775000      18.0000    195.0840
   17   1 Ni  28       3.850000    0.000000    0.000000      18.0000     58.6934
   18   2 Pt  78       5.775000    1.925000    0.000000      18.0000    195.0840
   19   2 Pt  78       5.775000    0.000000    1.925000      18.0000    195.0840
   20   2 Pt  78       3.850000    1.925000    1.925000      18.0000    195.0840
   21   1 Ni  28       3.850000    0.000000    3.850000      18.0000     58.6934
   22   2 Pt  78       5.775000    1.925000    3.850000      18.0000    195.0840
   23   2 Pt  78       5.775000    0.000000    5.775000      18.0000    195.0840
   24   2 Pt  78       3.850000    1.925000    5.775000      18.0000    195.0840
   25   1 Ni  28       3.850000    3.850000    0.000000      18.0000     58.6934
   26   2 Pt  78       5.775000    5.775000    0.000000      18.0000    195.0840
   27   2 Pt  78       5.775000    3.850000    1.925000      18.0000    195.0840
   28   2 Pt  78       3.850000    5.775000    1.925000      18.0000    195.0840
   29   1 Ni  28       3.850000    3.850000    3.850000      18.0000     58.6934
   30   2 Pt  78       5.775000    5.775000    3.850000      18.0000    195.0840
   31   2 Pt  78       5.775000    3.850000    5.775000      18.0000    195.0840
   32   2 Pt  78       3.850000    5.775000    5.775000      18.0000    195.0840




 SCF PARAMETERS         Density guess:                                    ATOMIC
                        --------------------------------------------------------
                        max_scf:                                             300
                        max_scf_history:                                       0
                        max_diis:                                              4
                        --------------------------------------------------------
                        eps_scf:                                        5.00E-07
                        eps_scf_history:                                0.00E+00
                        eps_diis:                                       1.00E-01
                        eps_eigval:                                     1.00E-05
                        --------------------------------------------------------
                        level_shift [a.u.]:                             0.000000
                        added MOs                                        30   30
                        --------------------------------------------------------
                        Mixing method:                            BROYDEN_MIXING
                                                charge density mixing in g-space
                        --------------------------------------------------------
                        Smear method:                                FERMI_DIRAC
                        Electronic temperature [K]:                        300.0
                        Electronic temperature [a.u.]:                  9.50E-04
                        Accuracy threshold:                             1.00E-10
                        --------------------------------------------------------
                        No outer SCF

 PW_GRID| Information for grid number                                          1
 PW_GRID| Grid distributed over                                   128 processors
 PW_GRID| Real space group dimensions                                     8   16
 PW_GRID| the grid is blocked:                                               YES
 PW_GRID| Cutoff [a.u.]                                                    250.0
 PW_GRID| spherical cutoff:                                                   NO
 PW_GRID|   Bounds   1            -54      53                Points:         108
 PW_GRID|   Bounds   2            -54      53                Points:         108
 PW_GRID|   Bounds   3            -54      53                Points:         108
 PW_GRID| Volume element (a.u.^3)  0.2446E-02     Volume (a.u.^3)      3080.8374
 PW_GRID| Grid span                                                    FULLSPACE
 PW_GRID|   Distribution                         Average         Max         Min
 PW_GRID|   G-Vectors                             9841.5       10584        8424
 PW_GRID|   G-Rays                                  91.1          98          78
 PW_GRID|   Real Space Points                     9841.5       10584        8424

 PW_GRID| Information for grid number                                          2
 PW_GRID| Number of the reference grid                                         1
 PW_GRID| Grid distributed over                                   128 processors
 PW_GRID| Real space group dimensions                                     8   16
 PW_GRID| the grid is blocked:                                                NO
 PW_GRID| Cutoff [a.u.]                                                     83.3
 PW_GRID| spherical cutoff:                                                   NO
 PW_GRID|   Bounds   1            -30      29                Points:          60
 PW_GRID|   Bounds   2            -30      29                Points:          60
 PW_GRID|   Bounds   3            -30      29                Points:          60
 PW_GRID| Volume element (a.u.^3)  0.1426E-01     Volume (a.u.^3)      3080.8374
 PW_GRID| Grid span                                                    FULLSPACE
 PW_GRID|   Distribution                         Average         Max         Min
 PW_GRID|   G-Vectors                             1687.5        5880           0
 PW_GRID|   G-Rays                                  28.1          98           0
 PW_GRID|   Real Space Points                     1687.5        1920        1260

 PW_GRID| Information for grid number                                          3
 PW_GRID| Number of the reference grid                                         1
 PW_GRID| Grid distributed over                                   128 processors
 PW_GRID| Real space group dimensions                                     8   16
 PW_GRID| the grid is blocked:                                                NO
 PW_GRID| Cutoff [a.u.]                                                     27.8
 PW_GRID| spherical cutoff:                                                   NO
 PW_GRID|   Bounds   1            -18      17                Points:          36
 PW_GRID|   Bounds   2            -18      17                Points:          36
 PW_GRID|   Bounds   3            -18      17                Points:          36
 PW_GRID| Volume element (a.u.^3)  0.6603E-01     Volume (a.u.^3)      3080.8374
 PW_GRID| Grid span                                                    FULLSPACE
 PW_GRID|   Distribution                         Average         Max         Min
 PW_GRID|   G-Vectors                              364.5        3528           0
 PW_GRID|   G-Rays                                  10.1          98           0
 PW_GRID|   Real Space Points                      364.5         540         288

 PW_GRID| Information for grid number                                          4
 PW_GRID| Number of the reference grid                                         1
 PW_GRID| Grid distributed over                                   128 processors
 PW_GRID| Real space group dimensions                                     8   16
 PW_GRID| the grid is blocked:                                                NO
 PW_GRID| Cutoff [a.u.]                                                      9.3
 PW_GRID| spherical cutoff:                                                   NO
 PW_GRID|   Bounds   1            -10       9                Points:          20
 PW_GRID|   Bounds   2            -10       9                Points:          20
 PW_GRID|   Bounds   3            -10       9                Points:          20
 PW_GRID| Volume element (a.u.^3)  0.3851         Volume (a.u.^3)      3080.8374
 PW_GRID| Grid span                                                    FULLSPACE
 PW_GRID|   Distribution                         Average         Max         Min
 PW_GRID|   G-Vectors                               62.5        1400           0
 PW_GRID|   G-Rays                                   3.1          70           0
 PW_GRID|   Real Space Points                       62.5         120          40

 POISSON| Solver                                                        PERIODIC
 POISSON| Periodicity                                                        XYZ

 RS_GRID| Information for grid number                                          1
 RS_GRID|   Bounds   1            -54      53                Points:         108
 RS_GRID|   Bounds   2            -54      53                Points:         108
 RS_GRID|   Bounds   3            -54      53                Points:         108
 RS_GRID| Real space distribution over                                  8 groups
 RS_GRID| Real space distribution along direction                              2
 RS_GRID| Border size                                                         33
 RS_GRID| Real space distribution over                                 16 groups
 RS_GRID| Real space distribution along direction                              3
 RS_GRID| Border size                                                         33
 RS_GRID|   Distribution                         Average         Max         Min
 RS_GRID|   Planes                                  79.5          80          79
 RS_GRID|   Distribution                         Average         Max         Min
 RS_GRID|   Planes                                  72.8          73          72

 RS_GRID| Information for grid number                                          2
 RS_GRID|   Bounds   1            -30      29                Points:          60
 RS_GRID|   Bounds   2            -30      29                Points:          60
 RS_GRID|   Bounds   3            -30      29                Points:          60
 RS_GRID| Real space fully replicated
 RS_GRID| Group size                                                           1

 RS_GRID| Information for grid number                                          3
 RS_GRID|   Bounds   1            -18      17                Points:          36
 RS_GRID|   Bounds   2            -18      17                Points:          36
 RS_GRID|   Bounds   3            -18      17                Points:          36
 RS_GRID| Real space fully replicated
 RS_GRID| Group size                                                           1

 RS_GRID| Information for grid number                                          4
 RS_GRID|   Bounds   1            -10       9                Points:          20
 RS_GRID|   Bounds   2            -10       9                Points:          20
 RS_GRID|   Bounds   3            -10       9                Points:          20
 RS_GRID| Real space fully replicated
 RS_GRID| Group size                                                           1

 Spin 1

 Number of electrons:                                                        300
 Number of occupied orbitals:                                                300
 Number of molecular orbitals:                                               330

 Spin 2

 Number of electrons:                                                        276
 Number of occupied orbitals:                                                276
 Number of molecular orbitals:                                               330

 Number of orbital functions:                                                832
 Number of independent orbital functions:                                    832

 Extrapolation method: initial_guess

 Atomic guess: The first density matrix is obtained in terms of atomic orbitals
               and electronic configurations assigned to each atomic kind

 Guess for atomic kind: Ni

 Electronic structure
    Total number of core electrons                                         10.00
    Total number of valence electrons                                      18.00
    Total number of electrons                                              28.00
    Multiplicity                                                         triplet
    Alpha Electrons
    S   [  1.00  1.00] 1.00  1.00
    P   [  3.00] 3.00
    D      5.00
    Beta Electrons
    S   [  1.00  1.00] 1.00  1.00
    P   [  3.00] 3.00
    D      3.00


 *******************************************************************************
                  Iteration          Convergence                     Energy [au]
 *******************************************************************************
                          1         1.61955                    -167.102733612646
                          2         17.9576                    -156.964728082342
                          3         2.81889                    -168.347679739779
                          4        0.300879                    -168.639029543130
                          5        0.133614                    -168.643718125190
                          6        0.642384E-01                -168.645928334381
                          7        0.411618E-01                -168.646613747745
                          8        0.978516E-02                -168.646711132537
                          9        0.508781E-01                -168.646571314898
                         10        0.138948E-01                -168.646700563277
                         11        0.138660E-01                -168.646700237384
                         12        0.629414E-02                -168.646712261956
                         13        0.566241E-02                -168.646713151996
                         14        0.495313E-02                -168.646714117454
                         15        0.421991E-02                -168.646714987798
                         16        0.338228E-02                -168.646715812720
                         17        0.416465E-02                -168.646716816326
                         18        0.344616E-02                -168.646717043212
                         19        0.330991E-02                -168.646717101846
                         20        0.313342E-02                -168.646717172930
                         21        0.281829E-02                -168.646717286496
                         22        0.848656E-03                -168.646717732580
                         23        0.109512E-02                -168.646717723740
                         24        0.104995E-02                -168.646717732012
                         25        0.102855E-02                -168.646717736906
                         26        0.100245E-02                -168.646717743176
                         27        0.676032E-03                -168.646717806927
                         28        0.602106E-03                -168.646717861030
                         29        0.625282E-03                -168.646717860099
                         30        0.624945E-03                -168.646717860052
                         31        0.623853E-03                -168.646717860100
                         32        0.624150E-03                -168.646717860067
                         33        0.237289E-03                -168.646717879062
                         34        0.180801E-03                -168.646717882280
                         35        0.181452E-03                -168.646717882256
                         36        0.181661E-03                -168.646717882245
                         37        0.181696E-03                -168.646717882243
                         38        0.180660E-03                -168.646717882285
                         39        0.167278E-03                -168.646717884960
                         40        0.108251E-03                -168.646717886084
                         41        0.108355E-03                -168.646717886083
                         42        0.108427E-03                -168.646717886083
                         43        0.108486E-03                -168.646717886083
                         44        0.108485E-03                -168.646717886083
                         45        0.694677E-04                -168.646717886478
                         46        0.318666E-04                -168.646717886752
                         47        0.318508E-04                -168.646717886753
                         48        0.318379E-04                -168.646717886753
                         49        0.318252E-04                -168.646717886753
                         50        0.320703E-04                -168.646717886751
 No convergence within maximum number of iterations 

 Energy components [Hartree]           Total Energy ::         -168.646717886751
                                        Band Energy ::          -26.584923955507
                                     Kinetic Energy ::           97.352330251814
                                   Potential Energy ::         -265.999048138565
                                      Virial (-V/T) ::            2.732333652934
                                        Core Energy ::         -299.595021414610
                                          XC Energy ::          -16.265210292971
                                     Coulomb Energy ::          147.213513820830
                       Total Pseudopotential Energy ::         -397.033695283644
                       Local Pseudopotential Energy ::         -362.697061997994
                    Nonlocal Pseudopotential Energy ::          -34.336633285650
                                        Confinement ::            0.863436172188

 Orbital energies  State     Spin  L     Occupation   Energy[a.u.]    Energy[eV]

                       1    alpha  0          1.000      -4.198782   -114.254674
                       2    alpha  0          1.000      -0.185813     -5.056229
                       1     beta  0          1.000      -4.107299   -111.765292
                       2     beta  0          1.000      -0.171331     -4.662162

                       1    alpha  1          3.000      -2.604156    -70.862688
                       1     beta  1          3.000      -2.515143    -68.440529

                       1    alpha  2          5.000      -0.348813     -9.491687
                       1     beta  2          3.000      -0.273245     -7.435375


 Total Electron Density at R=0:                                         0.030313

 Guess for atomic kind: Pt

 Electronic structure
    Total number of core electrons                                         60.00
    Total number of valence electrons                                      18.00
    Total number of electrons                                              78.00
    Multiplicity                                                         singlet
    Alpha Electrons
    S   [  1.00  1.00  1.00  1.00] 1.00  0.50
    P   [  3.00  3.00  3.00] 3.00
    D   [  5.00  5.00] 4.67
    F   [  7.00]
    Beta Electrons
    S   [  1.00  1.00  1.00  1.00] 1.00  0.50
    P   [  3.00  3.00  3.00] 3.00
    D   [  5.00  5.00] 4.33
    F   [  7.00]


 *******************************************************************************
                  Iteration          Convergence                     Energy [au]
 *******************************************************************************
                          1         1.91075                    -117.503915376679
                          2         8.08896                    -114.696110844711
                          3        0.835409                    -119.581042396314
                          4        0.172628                    -119.638980454746
                          5        0.176904E-01                -119.641362302384
                          6        0.508486E-02                -119.641383797303
                          7        0.369784E-02                -119.641386161760
                          8        0.262201E-02                -119.641387915897
                          9        0.231205E-02                -119.641388219034
                         10        0.105432E-02                -119.641389448047
                         11        0.221675E-02                -119.641389175565
                         12        0.594099E-03                -119.641389526282
                         13        0.392623E-03                -119.641389541151
                         14        0.251182E-03                -119.641389550003
                         15        0.631224E-04                -119.641389557187
                         16        0.160747E-03                -119.641389554630
                         17        0.246709E-03                -119.641389552874
                         18        0.136747E-03                -119.641389555922
                         19        0.679675E-04                -119.641389557030
                         20        0.733521E-04                -119.641389557410
                         21        0.745198E-04                -119.641389557395
                         22        0.667123E-04                -119.641389557486
                         23        0.796691E-04                -119.641389557367
                         24        0.737041E-04                -119.641389557428
                         25        0.495920E-04                -119.641389557680
                         26        0.335139E-04                -119.641389557800
                         27        0.325466E-04                -119.641389557805
                         28        0.319748E-04                -119.641389557808
                         29        0.325589E-04                -119.641389557805
                         30        0.273868E-04                -119.641389557838
                         31        0.151127E-04                -119.641389557888
                         32        0.151297E-04                -119.641389557888
                         33        0.151088E-04                -119.641389557888
                         34        0.999807E-05                -119.641389557899
                         35        0.351783E-05                -119.641389557906
                         36        0.191933E-05                -119.641389557907
                         37        0.216357E-05                -119.641389557907
                         38        0.780377E-06                -119.641389557908

 Energy components [Hartree]           Total Energy ::         -119.641389557908
                                        Band Energy ::          -21.642317042012
                                     Kinetic Energy ::           38.738918658296
                                   Potential Energy ::         -158.380308216204
                                      Virial (-V/T) ::            4.088402921445
                                        Core Energy ::         -209.816825332589
                                          XC Energy ::          -11.388568582717
                                     Coulomb Energy ::          101.564004357398
                       Total Pseudopotential Energy ::         -248.671808106347
                       Local Pseudopotential Energy ::         -235.761519499280
                    Nonlocal Pseudopotential Energy ::          -12.910288607067
                                        Confinement ::            1.160641154626

 Orbital energies  State     Spin  L     Occupation   Energy[a.u.]    Energy[eV]

                       1    alpha  0          1.000      -3.696202   -100.578780
                       2    alpha  0          0.500      -0.188796     -5.137401
                       1     beta  0          1.000      -3.689255   -100.389745
                       2     beta  0          0.500      -0.185254     -5.041013

                       1    alpha  1          3.000      -2.043115    -55.595980
                       1     beta  1          3.000      -2.035525    -55.389458

                       1    alpha  2          4.667      -0.207162     -5.637167
                       1     beta  2          4.333      -0.200113     -5.445362


 Total Electron Density at R=0:                                         0.008548

 Spin 1
 Re-scaling the density matrix to get the right number of electrons for spin 1
                  # Electrons              Trace(P)               Scaling factor
                          300               300.000                        1.000
 ispin           1
 rds   1.0000000000001941     

 Spin 2
 Re-scaling the density matrix to get the right number of electrons for spin 2
                  # Electrons              Trace(P)               Scaling factor
                          276               276.000                        1.000
 ispin           2
 rds   1.0000000000002183     


 SCF WAVEFUNCTION OPTIMIZATION

  Step     Update method      Time    Convergence         Total energy    Change
  ------------------------------------------------------------------------------
     1 NoMix/Diag. 0.40E-01    1.1     1.47339041     -4248.9525622013 -4.25E+03
     2 Broy./Diag. 0.40E-01    1.0     0.11485560     -4229.0798003443  1.99E+01
     3 Broy./Diag. 0.40E-01    1.0     0.49299477     -4238.2513138071 -9.17E+00
     4 Broy./Diag. 0.40E-01    1.0     0.47940146     -4296.3263734666 -5.81E+01
     5 Broy./Diag. 0.40E-01    1.0     0.00901499     -4254.3696700910  4.20E+01
     6 Broy./Diag. 0.40E-01    1.0     0.10981146     -4243.0404281567  1.13E+01
     7 Broy./Diag. 0.40E-01    1.0     0.09116136     -4222.0345779911  2.10E+01
     8 Broy./Diag. 0.40E-01    1.0     0.07908133     -4230.4012410338 -8.37E+00
     9 Broy./Diag. 0.40E-01    1.0     0.09252007     -4225.6129135770  4.79E+00
    10 Broy./Diag. 0.40E-01    1.0     0.03831378     -4233.8214003212 -8.21E+00
    11 Broy./Diag. 0.40E-01    1.0     0.19797193     -4233.8816229566 -6.02E-02
    12 Broy./Diag. 0.40E-01    1.0     0.02058514     -4242.9046251799 -9.02E+00
    13 Broy./Diag. 0.40E-01    1.0     0.03225185     -4240.3879771654  2.52E+00
    14 Broy./Diag. 0.40E-01    1.0     0.00418962     -4239.8511557851  5.37E-01
    15 Broy./Diag. 0.40E-01    1.0     0.16911873     -4239.8952684144 -4.41E-02
    16 Broy./Diag. 0.40E-01    1.0     0.03691362     -4237.0716540725  2.82E+00
    17 Broy./Diag. 0.40E-01    1.0     0.00926149     -4240.2160644940 -3.14E+00
    18 Broy./Diag. 0.40E-01    1.0     0.01614085     -4240.6497557367 -4.34E-01
    19 Broy./Diag. 0.40E-01    1.0     0.00669559     -4241.0847403225 -4.35E-01
    20 Broy./Diag. 0.40E-01    1.0     0.03836545     -4240.9825051563  1.02E-01
    21 Broy./Diag. 0.40E-01    1.0     0.02048730     -4242.5240082236 -1.54E+00
    22 Broy./Diag. 0.40E-01    1.0     0.01601111     -4243.7682798431 -1.24E+00
    23 Broy./Diag. 0.40E-01    1.0     0.01971534     -4245.1784721269 -1.41E+00
    24 Broy./Diag. 0.40E-01    1.0     0.04749558     -4243.9630567380  1.22E+00
    25 Broy./Diag. 0.40E-01    1.0     0.01239565     -4248.0407535195 -4.08E+00
    26 Broy./Diag. 0.40E-01    1.0     0.00934363     -4248.7026055466 -6.62E-01
    27 Broy./Diag. 0.40E-01    1.0     0.00333796     -4247.7340268972  9.69E-01
[...]

 Pt3Ni-SPIN_DENSITY-1_0.cube

 !-----------------------------------------------------------------------------!
                     Mulliken Population Analysis

 #  Atom  Element  Kind  Atomic population (alpha,beta) Net charge  Spin moment
       1     Ni       1         9.378316     8.795675    -0.173990     0.582641
       2     Pt       2         9.080000     8.861945     0.058054     0.218055
       3     Pt       2         9.080005     8.861943     0.058052     0.218062
       4     Pt       2         9.080002     8.861945     0.058053     0.218057
       5     Ni       1         9.379087     8.795187    -0.174274     0.583900
       6     Pt       2         9.080066     8.861915     0.058019     0.218151
       7     Pt       2         9.080005     8.861943     0.058052     0.218062
       8     Pt       2         9.080002     8.861945     0.058053     0.218057
       9     Ni       1         9.378853     8.795321    -0.174174     0.583532
      10     Pt       2         9.080000     8.861945     0.058054     0.218055
      11     Pt       2         9.080062     8.861917     0.058021     0.218145
      12     Pt       2         9.080002     8.861945     0.058053     0.218057
      13     Ni       1         9.379949     8.793991    -0.173941     0.585958
      14     Pt       2         9.080066     8.861915     0.058019     0.218151
      15     Pt       2         9.080062     8.861917     0.058021     0.218145
      16     Pt       2         9.080002     8.861945     0.058053     0.218057
      17     Ni       1         9.379023     8.795230    -0.174253     0.583793
      18     Pt       2         9.080000     8.861945     0.058054     0.218055
      19     Pt       2         9.080005     8.861943     0.058052     0.218062
      20     Pt       2         9.080065     8.861916     0.058020     0.218149
      21     Ni       1         9.379918     8.793954    -0.173871     0.585964
      22     Pt       2         9.080066     8.861915     0.058019     0.218151
      23     Pt       2         9.080005     8.861943     0.058052     0.218062
      24     Pt       2         9.080065     8.861916     0.058020     0.218149
      25     Ni       1         9.379941     8.794015    -0.173956     0.585925
      26     Pt       2         9.080000     8.861945     0.058054     0.218055
      27     Pt       2         9.080062     8.861917     0.058021     0.218145
      28     Pt       2         9.080065     8.861916     0.058020     0.218149
      29     Ni       1         9.380245     8.794173    -0.174418     0.586072
      30     Pt       2         9.080066     8.861915     0.058019     0.218151
      31     Pt       2         9.080062     8.861917     0.058021     0.218145
      32     Pt       2         9.080065     8.861916     0.058020     0.218149
 # Total charge and spin      292.956132   283.043868     0.000000     9.912264

 !-----------------------------------------------------------------------------!

 !-----------------------------------------------------------------------------!
                           Hirshfeld Charges

  #Atom  Element  Kind  Ref Charge     Population       Spin moment  Net charge
      1       Ni     1      18.000    9.420   8.810            0.610     -0.231
      2       Pt     2      18.000    9.066   8.857            0.209      0.077
      3       Pt     2      18.000    9.066   8.857            0.209      0.077
      4       Pt     2      18.000    9.066   8.857            0.209      0.077
      5       Ni     1      18.000    9.421   8.810            0.612     -0.231
      6       Pt     2      18.000    9.066   8.857            0.209      0.077
      7       Pt     2      18.000    9.066   8.857            0.209      0.077
      8       Pt     2      18.000    9.066   8.857            0.209      0.077
      9       Ni     1      18.000    9.421   8.810            0.611     -0.231
     10       Pt     2      18.000    9.066   8.857            0.209      0.077
     11       Pt     2      18.000    9.066   8.857            0.209      0.077
     12       Pt     2      18.000    9.066   8.857            0.209      0.077
     13       Ni     1      18.000    9.422   8.808            0.614     -0.231
     14       Pt     2      18.000    9.066   8.857            0.209      0.077
     15       Pt     2      18.000    9.066   8.857            0.209      0.077
     16       Pt     2      18.000    9.066   8.857            0.209      0.077
     17       Ni     1      18.000    9.421   8.810            0.611     -0.231
     18       Pt     2      18.000    9.066   8.857            0.209      0.077
     19       Pt     2      18.000    9.066   8.857            0.209      0.077
     20       Pt     2      18.000    9.066   8.857            0.209      0.077
     21       Ni     1      18.000    9.422   8.808            0.614     -0.231
     22       Pt     2      18.000    9.066   8.857            0.209      0.077
     23       Pt     2      18.000    9.066   8.857            0.209      0.077
     24       Pt     2      18.000    9.066   8.857            0.209      0.077
     25       Ni     1      18.000    9.422   8.808            0.614     -0.231
     26       Pt     2      18.000    9.066   8.857            0.209      0.077
     27       Pt     2      18.000    9.066   8.857            0.209      0.077
     28       Pt     2      18.000    9.066   8.857            0.209      0.077
     29       Ni     1      18.000    9.422   8.809            0.614     -0.231
     30       Pt     2      18.000    9.066   8.857            0.209      0.077
     31       Pt     2      18.000    9.066   8.857            0.209      0.077
     32       Pt     2      18.000    9.066   8.857            0.209      0.077

  Total Charge                                                           -0.000
 !-----------------------------------------------------------------------------!

 ENERGY| Total FORCE_EVAL ( QS ) energy [a.u.]:            -4239.170508403851272

 -------------------------------------------------------------------------------
 -                                                                             -
 -                                DBCSR STATISTICS                             -
 -                                                                             -
 -------------------------------------------------------------------------------
 COUNTER                                    TOTAL       BLAS       SMM       ACC
 flops inhomo. stacks                           0       0.0%      0.0%      0.0%
 flops total                         0.000000E+00       0.0%      0.0%      0.0%
 flops max/rank                      0.000000E+00       0.0%      0.0%      0.0%
 matmuls inhomo. stacks                         0       0.0%      0.0%      0.0%
 matmuls total                                  0       0.0%      0.0%      0.0%
 number of processed stacks                     0       0.0%      0.0%      0.0%
 average stack size                                     0.0       0.0       0.0
 marketing flops                     0.000000E+00
 -------------------------------------------------------------------------------
 -                                                                             -
 -                      DBCSR MESSAGE PASSING PERFORMANCE                      -
 -                                                                             -
 -------------------------------------------------------------------------------
 ROUTINE             CALLS      AVE VOLUME [Bytes]
 MP_Bcast                1                     12.
 MP_Allreduce       126021                      8.
 MP_Alltoall         87000                  66586.
 -------------------------------------------------------------------------------

 -------------------------------------------------------------------------------
 -                                                                             -
 -                                DBM STATISTICS                               -
 -                                                                             -
 -------------------------------------------------------------------------------
    M  x    N  x    K                                          COUNT     PERCENT
 -------------------------------------------------------------------------------

 -------------------------------------------------------------------------------
 -                                                                             -
 -                                GRID STATISTICS                              -
 -                                                                             -
 -------------------------------------------------------------------------------
 LP    KERNEL             BACKEND                              COUNT     PERCENT
 6     collocate ortho    REF                               44798432      50.03%
 6     integrate ortho    REF                               44649600      49.86%
 0     integrate general  REF                                  65536       0.07%
 0     collocate general  REF                                  36864       0.04%
 -------------------------------------------------------------------------------

 MEMORY| Estimated peak process memory [MiB]                                 298

 -------------------------------------------------------------------------------
 ----                             MULTIGRID INFO                            ----
 -------------------------------------------------------------------------------
 count for grid        1:        3181520          cutoff [a.u.]          250.00
 count for grid        2:        1082432          cutoff [a.u.]           83.33
 count for grid        3:         423360          cutoff [a.u.]           27.78
 count for grid        4:         155040          cutoff [a.u.]            9.26
 total gridlevel count  :        4842352

 -------------------------------------------------------------------------------
 -                                                                             -
 -                         MESSAGE PASSING PERFORMANCE                         -
 -                                                                             -
 -------------------------------------------------------------------------------

 ROUTINE             CALLS      AVE VOLUME [Bytes]
 MP_Group                5
 MP_Bcast            21980                  19683.
 MP_Allreduce        68800                     42.
 MP_Sync              7216
 MP_Alltoall         18629               28919406.
 MP_ISendRecv       457962                   6880.
 MP_Wait            536238
 MP_ISend           122622                  53252.
 MP_IRecv           122774                  53190.
 MP_Recv             78750                 212992.
 MP_Write_All            2                  19908.
 -------------------------------------------------------------------------------


 -------------------------------------------------------------------------------
 -                                                                             -
 -                           R E F E R E N C E S                               -
 -                                                                             -
 -------------------------------------------------------------------------------
 
 CP2K version 2022.1, the CP2K developers group (2022).
 CP2K is freely available from https://www.cp2k.org/ .

 Kuehne,Thomas D.; Iannuzzi,Marcella; Del Ben,Mauro;
 Rybkin,Vladimir V.; Seewald,Patrick; Stein,Frederick; Laino,Teodoro;
 Khaliullin,Rustam Z.; Schuett,Ole; Schiffmann,Florian; Golze,Dorothea;
 Wilhelm,Jan; Chulkov,Sergey; Bani-Hashemian,Mohammad Hossein;
 Weber,Valery; Borstnik,Urban; Taillefumier,Mathieu;
 Jakobovits,Alice Shoshana; Lazzaro,Alfio; Pabst,Hans; Mueller,Tiziano;
 Schade,Robert; Guidon,Manuel; Andermatt,Samuel; Holmberg,Nico;
 Schenter,Gregory K.; Hehn,Anna; Bussy,Augustin; Belleflamme,Fabian;
 Tabacchi,Gloria; Gloess,Andreas; Lass,Michael; Bethune,Iain;
 Mundy,Christopher J.; Plessl,Christian; Watkins,Matt;
 VandeVondele,Joost; Krack,Matthias; Hutter,Juerg. 
 The Journal of Chemical Physics, 152 (19), (2020). 
 CP2K: An electronic structure and molecular dynamics software package -
 Quickstep: Efficient and accurate electronic structure calculations.
 https://doi.org/10.1063/5.0007045

 Schuett, Ole; Messmer, Peter; Hutter, Juerg; VandeVondele, Joost. 
 Electronic Structure Calculations on Graphics Processing Units, John
 Wiley & Sons, Ltd, 173-190 (2016). 
 GPU-Accelerated Sparse Matrix-Matrix Multiplication for
 Linear Scaling Density Functional Theory.
 https://doi.org/10.1002/9781118670712.ch8

 Heinecke, A; Henry, G; Hutchinson, M; Pabst, H. 
 Proceedings of Intl. Supercomputing Conference, 981-991 (2016). 
 LIBXSMM: Accelerating Small Matrix Multiplications
 by Runtime Code Generation.
 https://doi.org/10.1109/SC.2016.83

 Borstnik, U; VandeVondele, J; Weber, V; Hutter, J. 
 PARALLEL COMPUTING, 40 (5-6), 47-58 (2014). 
 Sparse matrix multiplication: The distributed block-compressed sparse
 row library.
 https://doi.org/10.1016/j.parco.2014.03.012

 Hutter, J; Iannuzzi, M; Schiffmann, F; VandeVondele, J. 
 WIREs Comput Mol Sci., 4 (1), 15-25 (2014). 
 CP2K: atomistic simulations of condensed matter systems.
 https://doi.org/10.1002/wcms.1159

 Marek, A; Blum, V; Johanni, R; Havu, V; Lang, B; Auckenthaler, T;
 Heinecke, A; Bungartz, H; Lederer, H. 
 Journal of Physics: Condensed Matter, 26 (21), (2014). 
 The ELPA library: scalable parallel eigenvalue solutions for
 electronic structure
 theory and computational science.
 https://doi.org/10.1088/0953-8984/26/21/213201

 VandeVondele, J; Hutter, J. 
 JOURNAL OF CHEMICAL PHYSICS, 127 (11), 114105 (2007). 
 Gaussian basis sets for accurate calculations on molecular systems in
 gas and condensed phases.
 https://doi.org/10.1063/1.2770708

 Krack, M. 
 THEORETICAL CHEMISTRY ACCOUNTS, 114 (1-3), 145-152 (2005). 
 Pseudopotentials for H to Kr optimized for gradient-corrected
 exchange-correlation functionals.
 https://doi.org/10.1007/s00214-005-0655-y

 VandeVondele, J; Krack, M; Mohamed, F; Parrinello, M; Chassaing, T;
 Hutter, J. COMPUTER PHYSICS COMMUNICATIONS, 167 (2), 103-128 (2005). 
 QUICKSTEP: Fast and accurate density functional calculations using a
 mixed Gaussian and plane waves approach.
 https://doi.org/10.1016/j.cpc.2004.12.014

 Frigo, M; Johnson, SG. 
 PROCEEDINGS OF THE IEEE, 93 (2), 216-231 (2005). 
 The design and implementation of FFTW3.
 https://doi.org/10.1109/JPROC.2004.840301

 Hartwigsen, C; Goedecker, S; Hutter, J. 
 PHYSICAL REVIEW B, 58 (7), 3641-3662 (1998). 
 Relativistic separable dual-space Gaussian pseudopotentials from H to Rn.
 https://doi.org/10.1103/PhysRevB.58.3641

 Lippert, G; Hutter, J; Parrinello, M. 
 MOLECULAR PHYSICS, 92 (3), 477-487 (1997). 
 A hybrid Gaussian and plane wave density functional scheme.
 https://doi.org/10.1080/002689797170220

 Perdew, JP; Burke, K; Ernzerhof, M. 
 PHYSICAL REVIEW LETTERS, 77 (18), 3865-3868 (1996). 
 Generalized gradient approximation made simple.
 https://doi.org/10.1103/PhysRevLett.77.3865

 Goedecker, S; Teter, M; Hutter, J. 
 PHYSICAL REVIEW B, 54 (3), 1703-1710 (1996). 
 Separable dual-space Gaussian pseudopotentials.
 https://doi.org/10.1103/PhysRevB.54.1703


 -------------------------------------------------------------------------------
 -                                                                             -
 -                                T I M I N G                                  -
 -                                                                             -
 -------------------------------------------------------------------------------
 SUBROUTINE                       CALLS  ASD         SELF TIME        TOTAL TIME
                                MAXIMUM       AVERAGE  MAXIMUM  AVERAGE  MAXIMUM
 CP2K                                 1  1.0    0.023    0.025  335.156  335.157
 qs_energies                          1  2.0    0.002    0.003  334.598  334.599
 scf_env_do_scf                       1  3.0    0.001    0.002  333.474  333.482
 scf_env_do_scf_inner_loop          300  4.0    0.068    0.096  333.473  333.480
 qs_scf_new_mos_kp                  300  5.0    0.003    0.005  140.527  140.842
 do_general_diag_kp                 300  6.0    0.034    0.044  140.524  140.837
 cp_cfm_geeig                       600  7.0    0.010    0.012  128.090  128.299
 cp_cfm_heevd                       600  8.0   92.500   94.658   92.500   94.658
 qs_ks_update_qs_env                300  5.0    0.005    0.006   85.086   85.187
 rebuild_ks_matrix                  300  6.0    0.003    0.005   81.369   81.469
 qs_ks_build_kohn_sham_matrix       300  7.0    0.137    0.167   81.365   81.466
 qs_rho_update_rho_low              301  5.0    0.003    0.004   69.937   71.075
 calculate_rho_elec                 602  6.0    0.051    0.057   69.933   71.071
 sum_up_and_integrate               300  8.0    0.044    0.077   69.835   70.861
 integrate_v_rspace                 600  9.0    0.021    0.028   69.788   70.800
 grid_collocate_task_list           602  7.0   52.789   56.012   52.789   56.012
 grid_integrate_task_list           600 10.0   50.966   52.936   50.966   52.936
 rs_pw_transfer                    4812  9.5    0.061    0.098   24.866   31.000
 copy_dbcsr_to_fm                  5550  6.4    0.058    0.063   27.940   30.703
 write_kpoints_restart              300  5.0    0.041    2.929   29.847   29.986
 dbcsr_desymmetrize_deep           7950  7.3    0.213    0.307   25.844   28.932
 mp_alltoall_i22                  14700  8.5   25.481   28.810   25.481   28.810
 cp_cfm_triangular_multiply        1800  8.0   25.813   28.485   25.813   28.485
 cp_fm_write_unformatted           3150  6.0    1.274   22.087    3.582   24.785
 mp_send_dv                        3150  7.0    2.286   22.421    2.286   22.421
 density_rs2pw                      602  7.0    0.020    0.024   14.760   20.913
 potential_pw2rs                    600 10.0    0.022    0.025   15.845   17.092
 mp_waitany                       41004 11.5    8.515   15.384    8.515   15.384
 rs_pw_transfer_RS2PW_250           604  9.0    2.733    3.381    8.698   14.901
 pw_transfer                      11109 10.1    1.239    1.352   12.717   14.161
 fft_wrap_pw1pw2                  10509 11.1    0.056    0.065   11.451   12.824
 fft_wrap_pw1pw2_250               6903 12.4    0.302    0.387    9.759   11.115
 mp_alltoall_d11v                 45302  9.0    5.545   10.630    5.545   10.630
 rs_pw_transfer_PW2RS_250           602 12.0    4.639    5.182   10.316   10.552
 fft3d_pb                          6903 13.4    2.137    2.349    8.281    9.689
 qs_vxc_create                      300  8.0    0.005    0.005    8.786    8.820
 xc_vxc_pw_create                   300  9.0    0.087    0.097    8.781    8.816
 rs_gather_matrices                 600 10.0    0.297    0.479    2.956    7.727
 mp_alltoall_z22v                 17412 15.2    5.299    6.858    5.299    6.858
 -------------------------------------------------------------------------------

 The number of warnings for this run is : 4
 
 -------------------------------------------------------------------------------
  **** **** ******  **  PROGRAM ENDED AT                 2023-01-21 12:48:03.183
 ***** ** ***  *** **   PROGRAM RAN ON                                 nid001542
 **    ****   ******    PROGRAM RAN BY                                    cahart
 ***** **    ** ** **   PROGRAM PROCESS ID                                112001
  **** **  *******  **  PROGRAM STOPPED IN /mnt/lustre/a2fs-work2/work/e05/e05/c
                                           ahart/postdoc/masters/yike/Pt3Ni/chri
                                           s_struct/supercell_2x2x2/archer2/opti
                                           mise/magnetization-multiplicity/fm_sc
                                           f-5e-7/search/16_8
