 DBCSR| CPU Multiplication driver                                           XSMM (U)
 DBCSR| Multrec recursion limit                                              512 (U)
 DBCSR| Multiplication stack size                                           1000 (D)
 DBCSR| Maximum elements for images                                    UNLIMITED (U)
 DBCSR| Multiplicative factor virtual images                                   1 (U)
 DBCSR| Use multiplication densification                                       T (D)
 DBCSR| Multiplication size stacks                                             3 (U)
 DBCSR| Use memory pool for CPU allocation                                     F (U)
 DBCSR| Number of 3D layers                                               SINGLE (U)
 DBCSR| Use MPI memory allocation                                              F (U)
 DBCSR| Use RMA algorithm                                                      F (U)
 DBCSR| Use Communication thread                                               T (U)
 DBCSR| Communication thread load                                             87 (D)
 DBCSR| MPI: My process id                                                     0
 DBCSR| MPI: Number of processes                                             128
 DBCSR| OMP: Current number of threads                                         1
 DBCSR| OMP: Max number of threads                                             1
 DBCSR| Split modifier for TAS multiplication algorithm                  1.0E+00 (U)


  **** **** ******  **  PROGRAM STARTED AT               2023-05-13 23:05:48.822
 ***** ** ***  *** **   PROGRAM STARTED ON                             nid004620
 **    ****   ******    PROGRAM STARTED BY                                cahart
 ***** **    ** ** **   PROGRAM PROCESS ID                                 97458
  **** **  *******  **  PROGRAM STARTED IN /mnt/lustre/a2fs-work2/work/e05/e05/c
                                           ahart/postdoc/masters/pt3ni/yike-111/
                                           fm/convergence/magnetization/scf-1E-4
                                           /testing/raw_dev_pbe-d3_tzvp_4-4-1_4e
                                           -2_4e-3_16_100_2000/Ni-0.6_Pt-0.0

 CP2K| version string:                 CP2K version 2023.1 (Development Version)
 CP2K| source code revision number:                                  git:964cd58
 CP2K| cp2kflags: omp libint fftw3 libxc elpa parallel scalapack xsmm plumed2 mk
 CP2K|            l
 CP2K| is freely available from                            https://www.cp2k.org/
 CP2K| Program compiled at                          Mon 13 Feb 17:05:14 GMT 2023
 CP2K| Program compiled on                                                  ln01
 CP2K| Program compiled for                                              ARCHER2
 CP2K| Data directory path    /work/e05/e05/cahart/cp2k/cp2k-2023.1/cp2k-2023.1-
 CP2K| Input file name                                                 input.inp

 GLOBAL| Force Environment number                                              1
 GLOBAL| Basis set file name                                    BASIS_MOLOPT_UCL
 GLOBAL| Potential file name                                      GTH_POTENTIALS
 GLOBAL| MM Potential file name                                     MM_POTENTIAL
 GLOBAL| Coordinate file name                                         struct.xyz
 GLOBAL| Method name                                                        CP2K
 GLOBAL| Project name                                                      Pt3Ni
 GLOBAL| Run type                                                         ENERGY
 GLOBAL| FFT library                                                       FFTW3
 GLOBAL| Diagonalization library                                            ELPA
 GLOBAL| DGEMM library                                                      BLAS
 GLOBAL| Minimum number of eigenvectors for ELPA usage                        16
 GLOBAL| Orthonormality check for eigenvectors                          DISABLED
 GLOBAL| Matrix multiplication library                                 ScaLAPACK
 GLOBAL| All-to-all communication in single precision                          F
 GLOBAL| FFTs using library dependent lengths                                  F
 GLOBAL| Grid backend                                                       AUTO
 GLOBAL| Global print level                                               MEDIUM
 GLOBAL| MPI I/O enabled                                                       T
 GLOBAL| Total number of message passing processes                           128
 GLOBAL| Number of threads for this process                                    1
 GLOBAL| This output is from process                                           0
 GLOBAL| Stack size for threads created by OpenMP (OMP_STACKSIZE)        default
 GLOBAL| CPU model name                          AMD EPYC 7742 64-Core Processor
 GLOBAL| CPUID                                                              1002

 MEMORY| system memory details [Kb]
 MEMORY|                        rank 0           min           max       average
 MEMORY| MemTotal            263528088     263528088     263528088     263528088
 MEMORY| MemFree             238575144     238575144     238575144     238575144
 MEMORY| Buffers                 33504         33504         33504         33504
 MEMORY| Cached                 828300        828300        828300        828300
 MEMORY| Slab                  1663372       1663372       1663372       1663372
 MEMORY| SReclaimable            97200         97200         97200         97200
 MEMORY| MemLikelyFree       239534148     239534148     239534148     239534148


 *** Fundamental physical constants (SI units) ***

 *** Literature: B. J. Mohr and B. N. Taylor,
 ***             CODATA recommended values of the fundamental physical
 ***             constants: 2006, Web Version 5.1
 ***             http://physics.nist.gov/constants

 Speed of light in vacuum [m/s]                             2.99792458000000E+08
 Magnetic constant or permeability of vacuum [N/A**2]       1.25663706143592E-06
 Electric constant or permittivity of vacuum [F/m]          8.85418781762039E-12
 Planck constant (h) [J*s]                                  6.62606896000000E-34
 Planck constant (h-bar) [J*s]                              1.05457162825177E-34
 Elementary charge [C]                                      1.60217648700000E-19
 Electron mass [kg]                                         9.10938215000000E-31
 Electron g factor [ ]                                     -2.00231930436220E+00
 Proton mass [kg]                                           1.67262163700000E-27
 Fine-structure constant                                    7.29735253760000E-03
 Rydberg constant [1/m]                                     1.09737315685270E+07
 Avogadro constant [1/mol]                                  6.02214179000000E+23
 Boltzmann constant [J/K]                                   1.38065040000000E-23
 Atomic mass unit [kg]                                      1.66053878200000E-27
 Bohr radius [m]                                            5.29177208590000E-11

 *** Conversion factors ***

 [u] -> [a.u.]                                              1.82288848426455E+03
 [Angstrom] -> [Bohr] = [a.u.]                              1.88972613288564E+00
 [a.u.] = [Bohr] -> [Angstrom]                              5.29177208590000E-01
 [a.u.] -> [s]                                              2.41888432650478E-17
 [a.u.] -> [fs]                                             2.41888432650478E-02
 [a.u.] -> [J]                                              4.35974393937059E-18
 [a.u.] -> [N]                                              8.23872205491840E-08
 [a.u.] -> [K]                                              3.15774647902944E+05
 [a.u.] -> [kJ/mol]                                         2.62549961709828E+03
 [a.u.] -> [kcal/mol]                                       6.27509468713739E+02
 [a.u.] -> [Pa]                                             2.94210107994716E+13
 [a.u.] -> [bar]                                            2.94210107994716E+08
 [a.u.] -> [atm]                                            2.90362800883016E+08
 [a.u.] -> [eV]                                             2.72113838565563E+01
 [a.u.] -> [Hz]                                             6.57968392072181E+15
 [a.u.] -> [1/cm] (wave numbers)                            2.19474631370540E+05
 [a.u./Bohr**2] -> [1/cm]                                   5.14048714338585E+03
 

 CELL_TOP| Volume [angstrom^3]:                                      2213.590108
 CELL_TOP| Vector a [angstrom     9.378     0.000     0.000   |a| =     9.378000
 CELL_TOP| Vector b [angstrom    -4.689     8.122     0.000   |b| =     9.378358
 CELL_TOP| Vector c [angstrom     0.000     0.000    29.062   |c| =    29.061899
 CELL_TOP| Angle (b,c), alpha [degree]:                                90.000000
 CELL_TOP| Angle (a,c), beta  [degree]:                                90.000000
 CELL_TOP| Angle (a,b), gamma [degree]:                               119.998736
 CELL_TOP| Numerically orthorhombic:                                          NO
 CELL_TOP| Periodicity                                                       XYZ

 GENERATE|  Preliminary Number of Bonds generated:                             0
 GENERATE|  Achieved consistency in connectivity generation.

 CELL| Volume [angstrom^3]:                                          2213.590108
 CELL| Vector a [angstrom]:       9.378     0.000     0.000   |a| =     9.378000
 CELL| Vector b [angstrom]:      -4.689     8.122     0.000   |b| =     9.378358
 CELL| Vector c [angstrom]:       0.000     0.000    29.062   |c| =    29.061899
 CELL| Angle (b,c), alpha [degree]:                                    90.000000
 CELL| Angle (a,c), beta  [degree]:                                    90.000000
 CELL| Angle (a,b), gamma [degree]:                                   119.998736
 CELL| Numerically orthorhombic:                                              NO
 CELL| Periodicity                                                           XYZ

 CELL_REF| Volume [angstrom^3]:                                      2213.590108
 CELL_REF| Vector a [angstrom     9.378     0.000     0.000   |a| =     9.378000
 CELL_REF| Vector b [angstrom    -4.689     8.122     0.000   |b| =     9.378358
 CELL_REF| Vector c [angstrom     0.000     0.000    29.062   |c| =    29.061899
 CELL_REF| Angle (b,c), alpha [degree]:                                90.000000
 CELL_REF| Angle (a,c), beta  [degree]:                                90.000000
 CELL_REF| Angle (a,b), gamma [degree]:                               119.998736
 CELL_REF| Numerically orthorhombic:                                          NO
 CELL_REF| Periodicity                                                       XYZ

 *** WARNING in cryssym.F:165 :: Symmetry library SPGLIB not available ***


 *******************************************************************************
                                    Kpoints
 *******************************************************************************
 BRILLOUIN| K-point scheme                                        Monkhorst-Pack
 BRILLOUIN| K-Point grid                                             4    4    1
 BRILLOUIN| Accuracy in Symmetry determination                      0.100000E-05
 BRILLOUIN| K-Point point group symmetrization                               OFF
 BRILLOUIN| Wavefunction type                                            COMPLEX
 BRILLOUIN| List of Kpoints [2 Pi/Bohr]                                        8
 BRILLOUIN| Number           Weight            X              Y              Z
 BRILLOUIN|     1           0.12500       -0.37500       -0.37500        0.00000
 BRILLOUIN|     2           0.12500       -0.37500       -0.12500        0.00000
 BRILLOUIN|     3           0.12500       -0.37500        0.12500        0.00000
 BRILLOUIN|     4           0.12500       -0.37500        0.37500        0.00000
 BRILLOUIN|     5           0.12500       -0.12500       -0.37500        0.00000
 BRILLOUIN|     6           0.12500       -0.12500       -0.12500        0.00000
 BRILLOUIN|     7           0.12500       -0.12500        0.12500        0.00000
 BRILLOUIN|     8           0.12500       -0.12500        0.37500        0.00000
 *******************************************************************************

 *******************************************************************************
 *******************************************************************************
 **                                                                           **
 **     #####                         ##              ##                      **
 **    ##   ##            ##          ##              ##                      **
 **   ##     ##                       ##            ######                    **
 **   ##     ##  ##   ##  ##   #####  ##  ##   ####   ##    #####    #####    **
 **   ##     ##  ##   ##  ##  ##      ## ##   ##      ##   ##   ##  ##   ##   **
 **   ##  ## ##  ##   ##  ##  ##      ####     ###    ##   ######   ######    **
 **    ##  ###   ##   ##  ##  ##      ## ##      ##   ##   ##       ##        **
 **     #######   #####   ##   #####  ##  ##  ####    ##    #####   ##        **
 **           ##                                                    ##        **
 **                                                                           **
 **                                                ... make the atoms dance   **
 **                                                                           **
 **            Copyright (C) by CP2K developers group (2000-2023)             **
 **                      J. Chem. Phys. 152, 194103 (2020)                    **
 **                                                                           **
 *******************************************************************************

 *** WARNING in qs_environment.F:1456 :: Number of electrons will be ***
 *** overwritten by NELEC_ALPHA and NELEC_BETA, multiplicity will be ***
 *** ignored.                                                        ***

 Number of electrons should be                                              1080
 Sum of NELEC_ALPHA and NELEC_BETA is                                   1080.000

 *** WARNING in qs_environment.F:1488 :: NELEC_ALPHA is not an integer, ***
 *** many features will not be supported.                               ***


 *** WARNING in qs_environment.F:1500 :: NELEC_BETA is not an integer, ***
 *** many features will not be supported.                              ***


 *** WARNING in qs_environment.F:1572 :: Kpoints: Different number of MOs   ***
 *** requested. The number of beta MOs will be set to the number alpha MOs. ***


 DFT| Spin unrestricted (spin-polarized) Kohn-Sham calculation               UKS
 DFT| Multiplicity                                                            10
 DFT| Number of spin states                                                    2
 DFT| Charge                                                                   0
 DFT| Self-interaction correction (SIC)                                       NO
 DFT| Cutoffs: density                                              1.000000E-10
 DFT|          gradient                                             1.000000E-10
 DFT|          tau                                                  1.000000E-10
 DFT|          cutoff_smoothing_range                               0.000000E+00
 DFT| XC density smoothing                                                  NONE
 DFT| XC derivatives                                                          PW

 FUNCTIONAL| PBE:
 FUNCTIONAL| J.P.Perdew, K.Burke, M.Ernzerhof, Phys. Rev. Letter, vol. 77, n 18,
 FUNCTIONAL|  pp. 3865-3868, (1996){spin polarized}                             

 vdW POTENTIAL|                                                   Pair Potential
 vdW POTENTIAL|          DFT-D3 (Version 3.1)
 vdW POTENTIAL|          Potential Form: S. Grimme et al, JCP 132: 154104 (2010)
 vdW POTENTIAL|          BJ Damping: S. Grimme et al, JCC 32: 1456 (2011)
 vdW POTENTIAL|          Cutoff Radius [Bohr]:                             20.00
 vdW POTENTIAL|          s6 Scaling Factor:                               1.0000
 vdW POTENTIAL|          a1 Damping Factor:                               0.4289
 vdW POTENTIAL|          s8 Scaling Factor:                               0.7875
 vdW POTENTIAL|          a2 Damping Factor:                               4.4407
 vdW POTENTIAL|          Cutoff for CN calculation:                   0.1000E-05

 QS| Method:                                                                 GPW
 QS| Density plane wave grid type                        NON-SPHERICAL FULLSPACE
 QS| Number of grid levels:                                                    4
 QS| Density cutoff [a.u.]:                                                250.0
 QS| Multi grid cutoff [a.u.]: 1) grid level                               250.0
 QS|                           2) grid level                                83.3
 QS|                           3) grid level                                27.8
 QS|                           4) grid level                                 9.3
 QS| Grid level progression factor:                                          3.0
 QS| Relative density cutoff [a.u.]:                                        30.0
 QS| Interaction thresholds: eps_pgf_orb:                                1.0E-07
 QS|                         eps_filter_matrix:                          0.0E+00
 QS|                         eps_core_charge:                            1.0E-16
 QS|                         eps_rho_gspace:                             1.0E-14
 QS|                         eps_rho_rspace:                             1.0E-14
 QS|                         eps_gvg_rspace:                             1.0E-07
 QS|                         eps_ppl:                                    1.0E-02
 QS|                         eps_ppnl:                                   1.0E-09


 ATOMIC KIND INFORMATION

  1. Atomic kind: Pt_1                                  Number of atoms:      12

     Orbital Basis Set                                        TZVP-MOLOPT-SR-GTH

       Number of orbital shell sets:                                           1
       Number of orbital shells:                                              11
       Number of primitive Cartesian functions:                                6
       Number of Cartesian basis functions:                                   41
       Number of spherical basis functions:                                   35
       Norm type:                                                              2

       Normalised Cartesian orbitals:

                        Set   Shell   Orbital            Exponent    Coefficient

                          1       1    2s                3.630668      -1.842736
                                                         3.114659       5.470062
                                                         1.999981      -2.195810
                                                         0.885340       0.062543
                                                         0.330796       0.293482
                                                         0.105770      -0.135909

                          1       2    3s                3.630668       0.121152
                                                         3.114659       0.282943
                                                         1.999981      -0.222703
                                                         0.885340      -0.152333
                                                         0.330796       0.059018
                                                         0.105770       0.127004

                          1       3    4s                3.630668      -0.844689
                                                         3.114659       0.385245
                                                         1.999981       0.302028
                                                         0.885340       0.710510
                                                         0.330796      -0.143042
                                                         0.105770       0.052286

                          1       4    5s                3.630668       0.158215
                                                         3.114659      -0.021237
                                                         1.999981       0.295915
                                                         0.885340       0.147596
                                                         0.330796       0.178153
                                                         0.105770      -0.001801

                          1       5    3px               3.630668       3.040485
                                                         3.114659      -1.243918
                                                         1.999981      -1.446991
                                                         0.885340      -0.752261
                                                         0.330796      -0.038235
                                                         0.105770      -0.012986
                          1       5    3py               3.630668       3.040485
                                                         3.114659      -1.243918
                                                         1.999981      -1.446991
                                                         0.885340      -0.752261
                                                         0.330796      -0.038235
                                                         0.105770      -0.012986
                          1       5    3pz               3.630668       3.040485
                                                         3.114659      -1.243918
                                                         1.999981      -1.446991
                                                         0.885340      -0.752261
                                                         0.330796      -0.038235
                                                         0.105770      -0.012986

                          1       6    4px               3.630668      -0.682003
                                                         3.114659       0.534307
                                                         1.999981      -0.228673
                                                         0.885340      -0.386548
                                                         0.330796       0.185127
                                                         0.105770       0.061336
                          1       6    4py               3.630668      -0.682003
                                                         3.114659       0.534307
                                                         1.999981      -0.228673
                                                         0.885340      -0.386548
                                                         0.330796       0.185127
                                                         0.105770       0.061336
                          1       6    4pz               3.630668      -0.682003
                                                         3.114659       0.534307
                                                         1.999981      -0.228673
                                                         0.885340      -0.386548
                                                         0.330796       0.185127
                                                         0.105770       0.061336

                          1       7    5px               3.630668       2.991696
                                                         3.114659      -1.856536
                                                         1.999981      -0.041638
                                                         0.885340       0.415739
                                                         0.330796      -0.550872
                                                         0.105770       0.117200
                          1       7    5py               3.630668       2.991696
                                                         3.114659      -1.856536
                                                         1.999981      -0.041638
                                                         0.885340       0.415739
                                                         0.330796      -0.550872
                                                         0.105770       0.117200
                          1       7    5pz               3.630668       2.991696
                                                         3.114659      -1.856536
                                                         1.999981      -0.041638
                                                         0.885340       0.415739
                                                         0.330796      -0.550872
                                                         0.105770       0.117200

                          1       8    4dx2              3.630668      -4.431593
                                                         3.114659       2.994590
                                                         1.999981       1.001089
                                                         0.885340       0.609842
                                                         0.330796       0.095979
                                                         0.105770       0.006573
                          1       8    4dxy              3.630668      -7.675744
                                                         3.114659       5.186782
                                                         1.999981       1.733937
                                                         0.885340       1.056277
                                                         0.330796       0.166241
                                                         0.105770       0.011385
                          1       8    4dxz              3.630668      -7.675744
                                                         3.114659       5.186782
                                                         1.999981       1.733937
                                                         0.885340       1.056277
                                                         0.330796       0.166241
                                                         0.105770       0.011385
                          1       8    4dy2              3.630668      -4.431593
                                                         3.114659       2.994590
                                                         1.999981       1.001089
                                                         0.885340       0.609842
                                                         0.330796       0.095979
                                                         0.105770       0.006573
                          1       8    4dyz              3.630668      -7.675744
                                                         3.114659       5.186782
                                                         1.999981       1.733937
                                                         0.885340       1.056277
                                                         0.330796       0.166241
                                                         0.105770       0.011385
                          1       8    4dz2              3.630668      -4.431593
                                                         3.114659       2.994590
                                                         1.999981       1.001089
                                                         0.885340       0.609842
                                                         0.330796       0.095979
                                                         0.105770       0.006573

                          1       9    5dx2              3.630668       5.386940
                                                         3.114659      -6.252972
                                                         1.999981       1.665659
                                                         0.885340      -0.233657
                                                         0.330796       0.037246
                                                         0.105770       0.029979
                          1       9    5dxy              3.630668       9.330454
                                                         3.114659     -10.830464
                                                         1.999981       2.885005
                                                         0.885340      -0.404706
                                                         0.330796       0.064512
                                                         0.105770       0.051925
                          1       9    5dxz              3.630668       9.330454
                                                         3.114659     -10.830464
                                                         1.999981       2.885005
                                                         0.885340      -0.404706
                                                         0.330796       0.064512
                                                         0.105770       0.051925
                          1       9    5dy2              3.630668       5.386940
                                                         3.114659      -6.252972
                                                         1.999981       1.665659
                                                         0.885340      -0.233657
                                                         0.330796       0.037246
                                                         0.105770       0.029979
                          1       9    5dyz              3.630668       9.330454
                                                         3.114659     -10.830464
                                                         1.999981       2.885005
                                                         0.885340      -0.404706
                                                         0.330796       0.064512
                                                         0.105770       0.051925
                          1       9    5dz2              3.630668       5.386940
                                                         3.114659      -6.252972
                                                         1.999981       1.665659
                                                         0.885340      -0.233657
                                                         0.330796       0.037246
                                                         0.105770       0.029979

                          1      10    6dx2              3.630668       3.739160
                                                         3.114659      -5.999130
                                                         1.999981       3.061528
                                                         0.885340       1.138316
                                                         0.330796      -0.143027
                                                         0.105770      -0.009138
                          1      10    6dxy              3.630668       6.476416
                                                         3.114659     -10.390798
                                                         1.999981       5.302723
                                                         0.885340       1.971621
                                                         0.330796      -0.247730
                                                         0.105770      -0.015827
                          1      10    6dxz              3.630668       6.476416
                                                         3.114659     -10.390798
                                                         1.999981       5.302723
                                                         0.885340       1.971621
                                                         0.330796      -0.247730
                                                         0.105770      -0.015827
                          1      10    6dy2              3.630668       3.739160
                                                         3.114659      -5.999130
                                                         1.999981       3.061528
                                                         0.885340       1.138316
                                                         0.330796      -0.143027
                                                         0.105770      -0.009138
                          1      10    6dyz              3.630668       6.476416
                                                         3.114659     -10.390798
                                                         1.999981       5.302723
                                                         0.885340       1.971621
                                                         0.330796      -0.247730
                                                         0.105770      -0.015827
                          1      10    6dz2              3.630668       3.739160
                                                         3.114659      -5.999130
                                                         1.999981       3.061528
                                                         0.885340       1.138316
                                                         0.330796      -0.143027
                                                         0.105770      -0.009138

                          1      11    5fx3              3.630668       4.675468
                                                         3.114659      -5.283430
                                                         1.999981       1.060779
                                                         0.885340      -0.426082
                                                         0.330796      -0.076594
                                                         0.105770      -0.002294
                          1      11    5fx2y             3.630668      10.454665
                                                         3.114659     -11.814108
                                                         1.999981       2.371973
                                                         0.885340      -0.952748
                                                         0.330796      -0.171270
                                                         0.105770      -0.005130
                          1      11    5fx2z             3.630668      10.454665
                                                         3.114659     -11.814108
                                                         1.999981       2.371973
                                                         0.885340      -0.952748
                                                         0.330796      -0.171270
                                                         0.105770      -0.005130
                          1      11    5fxy2             3.630668      10.454665
                                                         3.114659     -11.814108
                                                         1.999981       2.371973
                                                         0.885340      -0.952748
                                                         0.330796      -0.171270
                                                         0.105770      -0.005130
                          1      11    5fxyz             3.630668      18.108011
                                                         3.114659     -20.462636
                                                         1.999981       4.108378
                                                         0.885340      -1.650208
                                                         0.330796      -0.296649
                                                         0.105770      -0.008885
                          1      11    5fxz2             3.630668      10.454665
                                                         3.114659     -11.814108
                                                         1.999981       2.371973
                                                         0.885340      -0.952748
                                                         0.330796      -0.171270
                                                         0.105770      -0.005130
                          1      11    5fy3              3.630668       4.675468
                                                         3.114659      -5.283430
                                                         1.999981       1.060779
                                                         0.885340      -0.426082
                                                         0.330796      -0.076594
                                                         0.105770      -0.002294
                          1      11    5fy2z             3.630668      10.454665
                                                         3.114659     -11.814108
                                                         1.999981       2.371973
                                                         0.885340      -0.952748
                                                         0.330796      -0.171270
                                                         0.105770      -0.005130
                          1      11    5fyz2             3.630668      10.454665
                                                         3.114659     -11.814108
                                                         1.999981       2.371973
                                                         0.885340      -0.952748
                                                         0.330796      -0.171270
                                                         0.105770      -0.005130
                          1      11    5fz3              3.630668       4.675468
                                                         3.114659      -5.283430
                                                         1.999981       1.060779
                                                         0.885340      -0.426082
                                                         0.330796      -0.076594
                                                         0.105770      -0.002294

       Atomic covalent radius [Angstrom]:                                  1.300

       Atomic van der Waals radius [Angstrom]:                             1.750

     GTH Potential information for                                   GTH-PBE-q18

       Description:                       Goedecker-Teter-Hutter pseudopotential
                                           Goedecker et al., PRB 54, 1703 (1996)
                                          Hartwigsen et al., PRB 58, 3641 (1998)
                                                      Krack, TCA 114, 145 (2005)

       Gaussian exponent of the core charge distribution:               2.000000
       Electronic configuration (s p d ...):                           3   6   9

       Parameters of the local part of the GTH pseudopotential:

                          rloc        C1          C2          C3          C4
                        0.500000    8.814323   -0.292509

       Parameters of the non-local part of the GTH pseudopotential:

                   l      r(l)      h(i,j,l)

                   0    0.298002   -5.968385   24.212900  -13.789679
                                   24.212900  -53.687634   35.604799
                                  -13.789679   35.604799  -28.260433
                   1    0.360172   -6.668659    7.170659    0.766904
                                    7.170659   -7.207661   -1.814825
                                    0.766904   -1.814825    1.289806
                   2    0.340532   -8.589905    9.410122
                                    9.410122  -10.670075

  2. Atomic kind: Ni_1                                  Number of atoms:       6

     Orbital Basis Set                                        TZVP-MOLOPT-SR-GTH

       Number of orbital shell sets:                                           1
       Number of orbital shells:                                              11
       Number of primitive Cartesian functions:                                6
       Number of Cartesian basis functions:                                   41
       Number of spherical basis functions:                                   35
       Norm type:                                                              2

       Normalised Cartesian orbitals:

                        Set   Shell   Orbital            Exponent    Coefficient

                          1       1    2s               10.077428      -0.302595
                                                         5.847736      -0.222193
                                                         2.494033       0.574584
                                                         0.988355       0.318352
                                                         0.344978       0.055413
                                                         0.099466       0.030222

                          1       2    3s               10.077428      -0.109296
                                                         5.847736      -0.204670
                                                         2.494033      -0.072994
                                                         0.988355      -0.407289
                                                         0.344978       0.098705
                                                         0.099466       0.115595

                          1       3    4s               10.077428       0.007401
                                                         5.847736      -0.106218
                                                         2.494033       0.440206
                                                         0.988355      -0.350232
                                                         0.344978       0.574016
                                                         0.099466      -0.113477

                          1       4    5s               10.077428       0.961462
                                                         5.847736       1.735304
                                                         2.494033      -0.914520
                                                         0.988355       0.345896
                                                         0.344978       0.117877
                                                         0.099466       0.026434

                          1       5    3px              10.077428      -3.378145
                                                         5.847736       3.169144
                                                         2.494033       2.066060
                                                         0.988355       0.550774
                                                         0.344978       0.079106
                                                         0.099466      -0.015734
                          1       5    3py              10.077428      -3.378145
                                                         5.847736       3.169144
                                                         2.494033       2.066060
                                                         0.988355       0.550774
                                                         0.344978       0.079106
                                                         0.099466      -0.015734
                          1       5    3pz              10.077428      -3.378145
                                                         5.847736       3.169144
                                                         2.494033       2.066060
                                                         0.988355       0.550774
                                                         0.344978       0.079106
                                                         0.099466      -0.015734

                          1       6    4px              10.077428      -0.644889
                                                         5.847736       0.547979
                                                         2.494033       0.967294
                                                         0.988355       0.073434
                                                         0.344978       0.050765
                                                         0.099466       0.065502
                          1       6    4py              10.077428      -0.644889
                                                         5.847736       0.547979
                                                         2.494033       0.967294
                                                         0.988355       0.073434
                                                         0.344978       0.050765
                                                         0.099466       0.065502
                          1       6    4pz              10.077428      -0.644889
                                                         5.847736       0.547979
                                                         2.494033       0.967294
                                                         0.988355       0.073434
                                                         0.344978       0.050765
                                                         0.099466       0.065502

                          1       7    5px              10.077428       0.764195
                                                         5.847736      -0.031006
                                                         2.494033       1.906720
                                                         0.988355       0.247914
                                                         0.344978      -0.445294
                                                         0.099466       0.005651
                          1       7    5py              10.077428       0.764195
                                                         5.847736      -0.031006
                                                         2.494033       1.906720
                                                         0.988355       0.247914
                                                         0.344978      -0.445294
                                                         0.099466       0.005651
                          1       7    5pz              10.077428       0.764195
                                                         5.847736      -0.031006
                                                         2.494033       1.906720
                                                         0.988355       0.247914
                                                         0.344978      -0.445294
                                                         0.099466       0.005651

                          1       8    4dx2             10.077428       7.796629
                                                         5.847736       8.441930
                                                         2.494033       2.856564
                                                         0.988355       0.427548
                                                         0.344978       0.061999
                                                         0.099466       0.008926
                          1       8    4dxy             10.077428      13.504157
                                                         5.847736      14.621851
                                                         2.494033       4.947714
                                                         0.988355       0.740535
                                                         0.344978       0.107385
                                                         0.099466       0.015461
                          1       8    4dxz             10.077428      13.504157
                                                         5.847736      14.621851
                                                         2.494033       4.947714
                                                         0.988355       0.740535
                                                         0.344978       0.107385
                                                         0.099466       0.015461
                          1       8    4dy2             10.077428       7.796629
                                                         5.847736       8.441930
                                                         2.494033       2.856564
                                                         0.988355       0.427548
                                                         0.344978       0.061999
                                                         0.099466       0.008926
                          1       8    4dyz             10.077428      13.504157
                                                         5.847736      14.621851
                                                         2.494033       4.947714
                                                         0.988355       0.740535
                                                         0.344978       0.107385
                                                         0.099466       0.015461
                          1       8    4dz2             10.077428       7.796629
                                                         5.847736       8.441930
                                                         2.494033       2.856564
                                                         0.988355       0.427548
                                                         0.344978       0.061999
                                                         0.099466       0.008926

                          1       9    5dx2             10.077428      -7.900462
                                                         5.847736      -8.487046
                                                         2.494033      -2.930041
                                                         0.988355      -0.403696
                                                         0.344978       0.088100
                                                         0.099466       0.016065
                          1       9    5dxy             10.077428     -13.684001
                                                         5.847736     -14.699995
                                                         2.494033      -5.074980
                                                         0.988355      -0.699222
                                                         0.344978       0.152594
                                                         0.099466       0.027826
                          1       9    5dxz             10.077428     -13.684001
                                                         5.847736     -14.699995
                                                         2.494033      -5.074980
                                                         0.988355      -0.699222
                                                         0.344978       0.152594
                                                         0.099466       0.027826
                          1       9    5dy2             10.077428      -7.900462
                                                         5.847736      -8.487046
                                                         2.494033      -2.930041
                                                         0.988355      -0.403696
                                                         0.344978       0.088100
                                                         0.099466       0.016065
                          1       9    5dyz             10.077428     -13.684001
                                                         5.847736     -14.699995
                                                         2.494033      -5.074980
                                                         0.988355      -0.699222
                                                         0.344978       0.152594
                                                         0.099466       0.027826
                          1       9    5dz2             10.077428      -7.900462
                                                         5.847736      -8.487046
                                                         2.494033      -2.930041
                                                         0.988355      -0.403696
                                                         0.344978       0.088100
                                                         0.099466       0.016065

                          1      10    6dx2             10.077428       4.546077
                                                         5.847736       1.882393
                                                         2.494033       2.955176
                                                         0.988355      -0.717181
                                                         0.344978      -0.225761
                                                         0.099466       0.017786
                          1      10    6dxy             10.077428       7.874037
                                                         5.847736       3.260400
                                                         2.494033       5.118515
                                                         0.988355      -1.242193
                                                         0.344978      -0.391029
                                                         0.099466       0.030807
                          1      10    6dxz             10.077428       7.874037
                                                         5.847736       3.260400
                                                         2.494033       5.118515
                                                         0.988355      -1.242193
                                                         0.344978      -0.391029
                                                         0.099466       0.030807
                          1      10    6dy2             10.077428       4.546077
                                                         5.847736       1.882393
                                                         2.494033       2.955176
                                                         0.988355      -0.717181
                                                         0.344978      -0.225761
                                                         0.099466       0.017786
                          1      10    6dyz             10.077428       7.874037
                                                         5.847736       3.260400
                                                         2.494033       5.118515
                                                         0.988355      -1.242193
                                                         0.344978      -0.391029
                                                         0.099466       0.030807
                          1      10    6dz2             10.077428       4.546077
                                                         5.847736       1.882393
                                                         2.494033       2.955176
                                                         0.988355      -0.717181
                                                         0.344978      -0.225761
                                                         0.099466       0.017786

                          1      11    5fx3             10.077428      -3.535394
                                                         5.847736       2.986110
                                                         2.494033       0.050340
                                                         0.988355       0.512187
                                                         0.344978       0.078257
                                                         0.099466       0.002668
                          1      11    5fx2y            10.077428      -7.905381
                                                         5.847736       6.677145
                                                         2.494033       0.112563
                                                         0.988355       1.145286
                                                         0.344978       0.174988
                                                         0.099466       0.005967
                          1      11    5fx2z            10.077428      -7.905381
                                                         5.847736       6.677145
                                                         2.494033       0.112563
                                                         0.988355       1.145286
                                                         0.344978       0.174988
                                                         0.099466       0.005967
                          1      11    5fxy2            10.077428      -7.905381
                                                         5.847736       6.677145
                                                         2.494033       0.112563
                                                         0.988355       1.145286
                                                         0.344978       0.174988
                                                         0.099466       0.005967
                          1      11    5fxyz            10.077428     -13.692521
                                                         5.847736      11.565154
                                                         2.494033       0.194965
                                                         0.988355       1.983693
                                                         0.344978       0.303088
                                                         0.099466       0.010334
                          1      11    5fxz2            10.077428      -7.905381
                                                         5.847736       6.677145
                                                         2.494033       0.112563
                                                         0.988355       1.145286
                                                         0.344978       0.174988
                                                         0.099466       0.005967
                          1      11    5fy3             10.077428      -3.535394
                                                         5.847736       2.986110
                                                         2.494033       0.050340
                                                         0.988355       0.512187
                                                         0.344978       0.078257
                                                         0.099466       0.002668
                          1      11    5fy2z            10.077428      -7.905381
                                                         5.847736       6.677145
                                                         2.494033       0.112563
                                                         0.988355       1.145286
                                                         0.344978       0.174988
                                                         0.099466       0.005967
                          1      11    5fyz2            10.077428      -7.905381
                                                         5.847736       6.677145
                                                         2.494033       0.112563
                                                         0.988355       1.145286
                                                         0.344978       0.174988
                                                         0.099466       0.005967
                          1      11    5fz3             10.077428      -3.535394
                                                         5.847736       2.986110
                                                         2.494033       0.050340
                                                         0.988355       0.512187
                                                         0.344978       0.078257
                                                         0.099466       0.002668

       Atomic covalent radius [Angstrom]:                                  1.150

       Atomic van der Waals radius [Angstrom]:                             1.630

     GTH Potential information for                                   GTH-PBE-q18

       Description:                       Goedecker-Teter-Hutter pseudopotential
                                           Goedecker et al., PRB 54, 1703 (1996)
                                          Hartwigsen et al., PRB 58, 3641 (1998)
                                                      Krack, TCA 114, 145 (2005)

       Gaussian exponent of the core charge distribution:               4.081633
       Electronic configuration (s p d ...):                           4   6   8

       Parameters of the local part of the GTH pseudopotential:

                          rloc        C1          C2          C3          C4
                        0.350000    2.102166    0.648484

       Parameters of the non-local part of the GTH pseudopotential:

                   l      r(l)      h(i,j,l)

                   0    0.261295    0.622658    9.970227
                                    9.970227  -12.871507
                   1    0.224253  -11.142708   12.429566
                                   12.429566  -14.706861
                   2    0.215348  -12.628146

  3. Atomic kind: Pt_2                                  Number of atoms:       6

     Orbital Basis Set                                        TZVP-MOLOPT-SR-GTH

       Number of orbital shell sets:                                           1
       Number of orbital shells:                                              11
       Number of primitive Cartesian functions:                                6
       Number of Cartesian basis functions:                                   41
       Number of spherical basis functions:                                   35
       Norm type:                                                              2

       Normalised Cartesian orbitals:

                        Set   Shell   Orbital            Exponent    Coefficient

                          1       1    2s                3.630668      -1.842736
                                                         3.114659       5.470062
                                                         1.999981      -2.195810
                                                         0.885340       0.062543
                                                         0.330796       0.293482
                                                         0.105770      -0.135909

                          1       2    3s                3.630668       0.121152
                                                         3.114659       0.282943
                                                         1.999981      -0.222703
                                                         0.885340      -0.152333
                                                         0.330796       0.059018
                                                         0.105770       0.127004

                          1       3    4s                3.630668      -0.844689
                                                         3.114659       0.385245
                                                         1.999981       0.302028
                                                         0.885340       0.710510
                                                         0.330796      -0.143042
                                                         0.105770       0.052286

                          1       4    5s                3.630668       0.158215
                                                         3.114659      -0.021237
                                                         1.999981       0.295915
                                                         0.885340       0.147596
                                                         0.330796       0.178153
                                                         0.105770      -0.001801

                          1       5    3px               3.630668       3.040485
                                                         3.114659      -1.243918
                                                         1.999981      -1.446991
                                                         0.885340      -0.752261
                                                         0.330796      -0.038235
                                                         0.105770      -0.012986
                          1       5    3py               3.630668       3.040485
                                                         3.114659      -1.243918
                                                         1.999981      -1.446991
                                                         0.885340      -0.752261
                                                         0.330796      -0.038235
                                                         0.105770      -0.012986
                          1       5    3pz               3.630668       3.040485
                                                         3.114659      -1.243918
                                                         1.999981      -1.446991
                                                         0.885340      -0.752261
                                                         0.330796      -0.038235
                                                         0.105770      -0.012986

                          1       6    4px               3.630668      -0.682003
                                                         3.114659       0.534307
                                                         1.999981      -0.228673
                                                         0.885340      -0.386548
                                                         0.330796       0.185127
                                                         0.105770       0.061336
                          1       6    4py               3.630668      -0.682003
                                                         3.114659       0.534307
                                                         1.999981      -0.228673
                                                         0.885340      -0.386548
                                                         0.330796       0.185127
                                                         0.105770       0.061336
                          1       6    4pz               3.630668      -0.682003
                                                         3.114659       0.534307
                                                         1.999981      -0.228673
                                                         0.885340      -0.386548
                                                         0.330796       0.185127
                                                         0.105770       0.061336

                          1       7    5px               3.630668       2.991696
                                                         3.114659      -1.856536
                                                         1.999981      -0.041638
                                                         0.885340       0.415739
                                                         0.330796      -0.550872
                                                         0.105770       0.117200
                          1       7    5py               3.630668       2.991696
                                                         3.114659      -1.856536
                                                         1.999981      -0.041638
                                                         0.885340       0.415739
                                                         0.330796      -0.550872
                                                         0.105770       0.117200
                          1       7    5pz               3.630668       2.991696
                                                         3.114659      -1.856536
                                                         1.999981      -0.041638
                                                         0.885340       0.415739
                                                         0.330796      -0.550872
                                                         0.105770       0.117200

                          1       8    4dx2              3.630668      -4.431593
                                                         3.114659       2.994590
                                                         1.999981       1.001089
                                                         0.885340       0.609842
                                                         0.330796       0.095979
                                                         0.105770       0.006573
                          1       8    4dxy              3.630668      -7.675744
                                                         3.114659       5.186782
                                                         1.999981       1.733937
                                                         0.885340       1.056277
                                                         0.330796       0.166241
                                                         0.105770       0.011385
                          1       8    4dxz              3.630668      -7.675744
                                                         3.114659       5.186782
                                                         1.999981       1.733937
                                                         0.885340       1.056277
                                                         0.330796       0.166241
                                                         0.105770       0.011385
                          1       8    4dy2              3.630668      -4.431593
                                                         3.114659       2.994590
                                                         1.999981       1.001089
                                                         0.885340       0.609842
                                                         0.330796       0.095979
                                                         0.105770       0.006573
                          1       8    4dyz              3.630668      -7.675744
                                                         3.114659       5.186782
                                                         1.999981       1.733937
                                                         0.885340       1.056277
                                                         0.330796       0.166241
                                                         0.105770       0.011385
                          1       8    4dz2              3.630668      -4.431593
                                                         3.114659       2.994590
                                                         1.999981       1.001089
                                                         0.885340       0.609842
                                                         0.330796       0.095979
                                                         0.105770       0.006573

                          1       9    5dx2              3.630668       5.386940
                                                         3.114659      -6.252972
                                                         1.999981       1.665659
                                                         0.885340      -0.233657
                                                         0.330796       0.037246
                                                         0.105770       0.029979
                          1       9    5dxy              3.630668       9.330454
                                                         3.114659     -10.830464
                                                         1.999981       2.885005
                                                         0.885340      -0.404706
                                                         0.330796       0.064512
                                                         0.105770       0.051925
                          1       9    5dxz              3.630668       9.330454
                                                         3.114659     -10.830464
                                                         1.999981       2.885005
                                                         0.885340      -0.404706
                                                         0.330796       0.064512
                                                         0.105770       0.051925
                          1       9    5dy2              3.630668       5.386940
                                                         3.114659      -6.252972
                                                         1.999981       1.665659
                                                         0.885340      -0.233657
                                                         0.330796       0.037246
                                                         0.105770       0.029979
                          1       9    5dyz              3.630668       9.330454
                                                         3.114659     -10.830464
                                                         1.999981       2.885005
                                                         0.885340      -0.404706
                                                         0.330796       0.064512
                                                         0.105770       0.051925
                          1       9    5dz2              3.630668       5.386940
                                                         3.114659      -6.252972
                                                         1.999981       1.665659
                                                         0.885340      -0.233657
                                                         0.330796       0.037246
                                                         0.105770       0.029979

                          1      10    6dx2              3.630668       3.739160
                                                         3.114659      -5.999130
                                                         1.999981       3.061528
                                                         0.885340       1.138316
                                                         0.330796      -0.143027
                                                         0.105770      -0.009138
                          1      10    6dxy              3.630668       6.476416
                                                         3.114659     -10.390798
                                                         1.999981       5.302723
                                                         0.885340       1.971621
                                                         0.330796      -0.247730
                                                         0.105770      -0.015827
                          1      10    6dxz              3.630668       6.476416
                                                         3.114659     -10.390798
                                                         1.999981       5.302723
                                                         0.885340       1.971621
                                                         0.330796      -0.247730
                                                         0.105770      -0.015827
                          1      10    6dy2              3.630668       3.739160
                                                         3.114659      -5.999130
                                                         1.999981       3.061528
                                                         0.885340       1.138316
                                                         0.330796      -0.143027
                                                         0.105770      -0.009138
                          1      10    6dyz              3.630668       6.476416
                                                         3.114659     -10.390798
                                                         1.999981       5.302723
                                                         0.885340       1.971621
                                                         0.330796      -0.247730
                                                         0.105770      -0.015827
                          1      10    6dz2              3.630668       3.739160
                                                         3.114659      -5.999130
                                                         1.999981       3.061528
                                                         0.885340       1.138316
                                                         0.330796      -0.143027
                                                         0.105770      -0.009138

                          1      11    5fx3              3.630668       4.675468
                                                         3.114659      -5.283430
                                                         1.999981       1.060779
                                                         0.885340      -0.426082
                                                         0.330796      -0.076594
                                                         0.105770      -0.002294
                          1      11    5fx2y             3.630668      10.454665
                                                         3.114659     -11.814108
                                                         1.999981       2.371973
                                                         0.885340      -0.952748
                                                         0.330796      -0.171270
                                                         0.105770      -0.005130
                          1      11    5fx2z             3.630668      10.454665
                                                         3.114659     -11.814108
                                                         1.999981       2.371973
                                                         0.885340      -0.952748
                                                         0.330796      -0.171270
                                                         0.105770      -0.005130
                          1      11    5fxy2             3.630668      10.454665
[...]
                  Iteration          Convergence                     Energy [au]
 *******************************************************************************
                          1         2.83240                    -119.143488100574
                          2         2.45315                    -118.983797615039
                          3        0.145846                    -119.637670064664
                          4        0.348513E-01                -119.639604971405
                          5        0.129379E-02                -119.639693952637
                          6        0.329516E-04                -119.639694077816
                          7        0.107744E-06                -119.639694077899

 Energy components [Hartree]           Total Energy ::         -119.639694077899
                                        Band Energy ::          -21.637112444126
                                     Kinetic Energy ::           38.695292373972
                                   Potential Energy ::         -158.334986451871
                                      Virial (-V/T) ::            4.091841067426
                                        Core Energy ::         -209.819747509131
                                          XC Energy ::          -11.386787168335
                                     Coulomb Energy ::          101.566840599567
                       Total Pseudopotential Energy ::         -248.630626075162
                       Local Pseudopotential Energy ::         -235.734946516797
                    Nonlocal Pseudopotential Energy ::          -12.895679558365
                                        Confinement ::            1.155861920587

 Orbital energies  State     L     Occupation   Energy[a.u.]          Energy[eV]

                       1     0          2.000      -3.693691         -100.510433
                       2     0          1.000      -0.185369           -5.044135

                       1     1          6.000      -2.040032          -55.512084

                       1     2          9.000      -0.202686           -5.515363


 Total Electron Density at R=0:                                         0.004757

 Guess for atomic kind: Ni_3

 Electronic structure
    Total number of core electrons                                         10.00
    Total number of valence electrons                                      18.00
    Total number of electrons                                              28.00
    Multiplicity                                                         doublet
    Alpha Electrons
    S   [  1.00  1.00] 1.00  1.00
    P   [  3.00] 3.00
    D      4.30
    Beta Electrons
    S   [  1.00  1.00] 1.00  1.00
    P   [  3.00] 3.00
    D      3.70


 *******************************************************************************
                  Iteration          Convergence                     Energy [au]
 *******************************************************************************
                          1         5.71090                    -163.579132241870
                          2         12.3691                    -140.660329468004
                          3        0.382624                    -168.554115380665
                          4        0.709434                    -168.590074308301
                          5        0.422092                    -168.607772828938
                          6        0.602075E-01                -168.616444659880
                          7        0.479717E-01                -168.616712174517
                          8        0.790799E-01                -168.616631675480
                          9        0.347752E-01                -168.616820716372
                         10        0.259326E-01                -168.616871874003
                         11        0.170427E-01                -168.616904438203
                         12        0.292988E-01                -168.616896068077
                         13        0.303187E-01                -168.616883888913
                         14        0.235482E-01                -168.616901910871
                         15        0.190733E-01                -168.616912648548
                         16        0.961337E-02                -168.616927891243
                         17        0.116987E-01                -168.616934401377
                         18        0.153342E-01                -168.616932545946
                         19        0.153252E-01                -168.616931941086
                         20        0.145411E-01                -168.616932785431
                         21        0.126536E-01                -168.616934972008
                         22        0.502347E-02                -168.616940930137
                         23        0.657816E-02                -168.616942217611
                         24        0.700721E-02                -168.616942013658
                         25        0.708681E-02                -168.616941939819
                         26        0.708426E-02                -168.616941927597
                         27        0.677456E-02                -168.616942148009
                         28        0.325869E-02                -168.616944499807
                         29        0.416884E-02                -168.616944646449
                         30        0.419839E-02                -168.616944639532
                         31        0.421753E-02                -168.616944632656
                         32        0.423295E-02                -168.616944626472
                         33        0.423858E-02                -168.616944623671
                         34        0.184179E-02                -168.616945394607
                         35        0.204622E-02                -168.616945403523
                         36        0.204769E-02                -168.616945403389
                         37        0.204925E-02                -168.616945403084
                         38        0.205094E-02                -168.616945402705
                         39        0.207476E-02                -168.616945397394
                         40        0.124091E-02                -168.616945629556
                         41        0.124407E-02                -168.616945630162
                         42        0.124516E-02                -168.616945630175
                         43        0.124555E-02                -168.616945630175
                         44        0.124571E-02                -168.616945630180
                         45        0.117255E-02                -168.616945638885
                         46        0.605233E-03                -168.616945697371
                         47        0.606368E-03                -168.616945697371
                         48        0.607627E-03                -168.616945697335
                         49        0.609756E-03                -168.616945697236
                         50        0.619664E-03                -168.616945696673
 No convergence within maximum number of iterations 

 Energy components [Hartree]           Total Energy ::         -168.616945696673
                                        Band Energy ::          -26.310576784736
                                     Kinetic Energy ::           97.562968787448
                                   Potential Energy ::         -266.179914484121
                                      Virial (-V/T) ::            2.728288384336
                                        Core Energy ::         -299.814725427803
                                          XC Energy ::          -16.252968055126
                                     Coulomb Energy ::          147.450747786257
                       Total Pseudopotential Energy ::         -397.463766339015
                       Local Pseudopotential Energy ::         -363.023838432124
                    Nonlocal Pseudopotential Energy ::          -34.439927906891
                                        Confinement ::            0.860721237628

 Orbital energies  State     Spin  L     Occupation   Energy[a.u.]    Energy[eV]

                       1    alpha  0          1.000      -4.152988   -113.008555
                       2    alpha  0          1.000      -0.179496     -4.884330
                       1     beta  0          1.000      -4.124436   -112.231604
                       2     beta  0          1.000      -0.175331     -4.771012

                       1    alpha  1          3.000      -2.559629    -69.651059
                       1     beta  1          3.000      -2.531893    -68.896301

                       1    alpha  2          4.300      -0.311284     -8.470482
                       1     beta  2          3.700      -0.287902     -7.834203


 Total Electron Density at R=0:                                         0.016493

 Guess for atomic kind: Pt_5

 Electronic structure
    Total number of core electrons                                         60.00
    Total number of valence electrons                                      18.00
    Total number of electrons                                              78.00
    Multiplicity                                                   not specified
    S   [  2.00  2.00  2.00  2.00] 2.00  1.00
    P   [  6.00  6.00  6.00] 6.00
    D   [ 10.00 10.00] 9.00
    F   [ 14.00]


 *******************************************************************************
                  Iteration          Convergence                     Energy [au]
 *******************************************************************************
                          1         2.83240                    -119.143488100574
                          2         2.45315                    -118.983797615039
                          3        0.145846                    -119.637670064664
                          4        0.348513E-01                -119.639604971405
                          5        0.129379E-02                -119.639693952637
                          6        0.329516E-04                -119.639694077816
                          7        0.107744E-06                -119.639694077899

 Energy components [Hartree]           Total Energy ::         -119.639694077899
                                        Band Energy ::          -21.637112444126
                                     Kinetic Energy ::           38.695292373972
                                   Potential Energy ::         -158.334986451871
                                      Virial (-V/T) ::            4.091841067426
                                        Core Energy ::         -209.819747509131
                                          XC Energy ::          -11.386787168335
                                     Coulomb Energy ::          101.566840599567
                       Total Pseudopotential Energy ::         -248.630626075162
                       Local Pseudopotential Energy ::         -235.734946516797
                    Nonlocal Pseudopotential Energy ::          -12.895679558365
                                        Confinement ::            1.155861920587

 Orbital energies  State     L     Occupation   Energy[a.u.]          Energy[eV]

                       1     0          2.000      -3.693691         -100.510433
                       2     0          1.000      -0.185369           -5.044135

                       1     1          6.000      -2.040032          -55.512084

                       1     2          9.000      -0.202686           -5.515363


 Total Electron Density at R=0:                                         0.004757

 Spin 1
 Re-scaling the density matrix to get the right number of electrons for spin 1
                  # Electrons              Trace(P)               Scaling factor
                        544.500             544.500                        1.000

 Spin 2
 Re-scaling the density matrix to get the right number of electrons for spin 2
                  # Electrons              Trace(P)               Scaling factor
                        535.500             535.500                        1.000


 SCF WAVEFUNCTION OPTIMIZATION

  Step     Update method      Time    Convergence         Total energy    Change
  ------------------------------------------------------------------------------
     1 NoMix/Diag. 0.40E-01    9.5     1.34109537     -7964.9207224028 -7.96E+03
     2 Broy./Diag. 0.40E-01   12.2     0.15754819     -7924.1874099114  4.07E+01
     3 Broy./Diag. 0.40E-01   12.2     0.23536221     -7946.7106143076 -2.25E+01
     4 Broy./Diag. 0.40E-01   12.2     0.24124935     -7965.4784058838 -1.88E+01
     5 Broy./Diag. 0.40E-01   12.2     0.22427873     -8031.4726866818 -6.60E+01
     6 Broy./Diag. 0.40E-01   12.2     0.11124386     -7981.6358151379  4.98E+01
     7 Broy./Diag. 0.40E-01   12.2     0.10955679     -7961.5463751687  2.01E+01
     8 Broy./Diag. 0.40E-01   12.2     0.04251217     -7973.7075789046 -1.22E+01
     9 Broy./Diag. 0.40E-01   12.2     0.05902058     -7956.5243340028  1.72E+01
    10 Broy./Diag. 0.40E-01   12.2     0.03071934     -7944.7770972993  1.17E+01
    11 Broy./Diag. 0.40E-01   12.2     0.06092844     -7944.5208495277  2.56E-01
    12 Broy./Diag. 0.40E-01   12.2     0.01818191     -7937.7685038901  6.75E+00
    13 Broy./Diag. 0.40E-01   12.2     0.03610580     -7939.1783776516 -1.41E+00
    14 Broy./Diag. 0.40E-01   12.2     0.01212282     -7935.5552430102  3.62E+00
    15 Broy./Diag. 0.40E-01   12.2     0.01400335     -7936.9381407893 -1.38E+00
    16 Broy./Diag. 0.40E-01   12.3     0.01534515     -7942.9195036470 -5.98E+00
    17 Broy./Diag. 0.40E-01   12.3     0.00852272     -7943.2351950861 -3.16E-01
    18 Broy./Diag. 0.40E-01   12.3     0.00516521     -7945.8249465730 -2.59E+00
    19 Broy./Diag. 0.40E-01   12.3     0.00824134     -7945.8394193333 -1.45E-02
    20 Broy./Diag. 0.40E-01   12.3     0.00459985     -7948.8218030953 -2.98E+00
    21 Broy./Diag. 0.40E-01   12.2     0.00374378     -7949.3090036231 -4.87E-01
    22 Broy./Diag. 0.40E-01   12.2     0.00211526     -7949.1755675980  1.33E-01
    23 Broy./Diag. 0.40E-01   12.2     0.00421617     -7948.9709128189  2.05E-01
    24 Broy./Diag. 0.40E-01   12.3     0.00255554     -7949.3534010917 -3.82E-01
    25 Broy./Diag. 0.40E-01   12.3     0.00104974     -7949.5211853092 -1.68E-01
    26 Broy./Diag. 0.40E-01   12.3     0.00113013     -7949.5591789438 -3.80E-02
    27 Broy./Diag. 0.40E-01   12.3     0.00494098     -7949.4212439881  1.38E-01
    28 Broy./Diag. 0.40E-01   12.3     0.00821631     -7949.6991512587 -2.78E-01
    29 Broy./Diag. 0.40E-01   12.3     0.00120743     -7950.1669864673 -4.68E-01
    30 Broy./Diag. 0.40E-01   12.3     0.00173165     -7950.0707167827  9.63E-02
    31 Broy./Diag. 0.40E-01   12.3     0.00101886     -7950.0837202805 -1.30E-02
    32 Broy./Diag. 0.40E-01   12.3     0.00169027     -7949.9905665630  9.32E-02
    33 Broy./Diag. 0.40E-01   12.3     0.00108181     -7949.9023193394  8.82E-02
    34 Broy./Diag. 0.40E-01   12.3     0.00094564     -7949.8940165185  8.30E-03
    35 Broy./Diag. 0.40E-01   12.3     0.00129464     -7949.8750331299  1.90E-02
    36 Broy./Diag. 0.40E-01   12.3     0.00232146     -7949.8221237731  5.29E-02
    37 Broy./Diag. 0.40E-01   12.3     0.00129012     -7949.6585052617  1.64E-01
    38 Broy./Diag. 0.40E-01   12.3     0.00103906     -7949.6932876844 -3.48E-02
    39 Broy./Diag. 0.40E-01   12.3     0.00228763     -7949.7069722594 -1.37E-02
    40 Broy./Diag. 0.40E-01   12.3     0.00441805     -7949.6282687729  7.87E-02
    41 Broy./Diag. 0.40E-01   12.2     0.00557194     -7949.4361859479  1.92E-01
    42 Broy./Diag. 0.40E-01   12.3     0.00680436     -7949.1643375324  2.72E-01
    43 Broy./Diag. 0.40E-01   12.3     0.00305365     -7948.8624085646  3.02E-01
    44 Broy./Diag. 0.40E-01   12.3     0.00229856     -7948.8783500548 -1.59E-02
    45 Broy./Diag. 0.40E-01   12.3     0.00607016     -7948.9058153947 -2.75E-02
    46 Broy./Diag. 0.40E-01   12.3     0.00335301     -7948.7424678679  1.63E-01
    47 Broy./Diag. 0.40E-01   12.3     0.00570378     -7948.5398358400  2.03E-01
    48 Broy./Diag. 0.40E-01   12.3     0.00525488     -7948.2983566990  2.41E-01
    49 Broy./Diag. 0.40E-01   12.3     0.00989469     -7948.1651359941  1.33E-01
    50 Broy./Diag. 0.40E-01   12.3     0.00269360     -7948.4460154299 -2.81E-01
    51 Broy./Diag. 0.40E-01   12.3     0.01429281     -7948.4263700531  1.96E-02
    52 Broy./Diag. 0.40E-01   12.2     0.00731286     -7947.6935263875  7.33E-01
    53 Broy./Diag. 0.40E-01   12.3     0.00595003     -7947.4128997066  2.81E-01
    54 Broy./Diag. 0.40E-01   12.3     0.00566445     -7947.3902130066  2.27E-02
    55 Broy./Diag. 0.40E-01   12.3     0.00255575     -7947.4285032047 -3.83E-02
    56 Broy./Diag. 0.40E-01   12.3     0.00634171     -7947.3726848845  5.58E-02
    57 Broy./Diag. 0.40E-01   12.3     0.00336856     -7947.0999500477  2.73E-01
    58 Broy./Diag. 0.40E-01   12.3     0.00075033     -7947.1344382427 -3.45E-02
    59 Broy./Diag. 0.40E-01   12.3     0.00084949     -7947.1212698664  1.32E-02
    60 Broy./Diag. 0.40E-01   12.3     0.00195491     -7947.0807032188  4.06E-02
    61 Broy./Diag. 0.40E-01   12.3     0.00231596     -7947.0525326977  2.82E-02
    62 Broy./Diag. 0.40E-01   12.3     0.00104388     -7947.0919768328 -3.94E-02
    63 Broy./Diag. 0.40E-01   12.3     0.00324343     -7947.1247503464 -3.28E-02
    64 Broy./Diag. 0.40E-01   12.3     0.00644471     -7947.1180596956  6.69E-03
    65 Broy./Diag. 0.40E-01   12.3     0.00404008     -7947.2562354137 -1.38E-01
    66 Broy./Diag. 0.40E-01   12.3     0.00532969     -7947.2545955269  1.64E-03
    67 Broy./Diag. 0.40E-01   12.3     0.00174873     -7947.2781183044 -2.35E-02
    68 Broy./Diag. 0.40E-01   12.3     0.00657572     -7947.2506017571  2.75E-02
    69 Broy./Diag. 0.40E-01   12.2     0.00152357     -7947.3006699705 -5.01E-02
    70 Broy./Diag. 0.40E-01   12.3     0.01511162     -7947.4655400906 -1.65E-01
    71 Broy./Diag. 0.40E-01   12.3     0.00490391     -7948.3517429014 -8.86E-01
    72 Broy./Diag. 0.40E-01   12.3     0.00199308     -7948.5063681060 -1.55E-01
    73 Broy./Diag. 0.40E-01   12.2     0.01057177     -7948.6541360812 -1.48E-01
    74 Broy./Diag. 0.40E-01   12.2     0.00994226     -7948.8579321123 -2.04E-01
    75 Broy./Diag. 0.40E-01   12.3     0.00389011     -7949.0980031958 -2.40E-01
    76 Broy./Diag. 0.40E-01   12.3     0.00865853     -7948.7371534622  3.61E-01
    77 Broy./Diag. 0.40E-01   12.3     0.00207434     -7948.3441191803  3.93E-01
    78 Broy./Diag. 0.40E-01   12.3     0.00901145     -7948.3555509621 -1.14E-02
    79 Broy./Diag. 0.40E-01   12.2     0.00149294     -7948.5021731333 -1.47E-01
    80 Broy./Diag. 0.40E-01   12.3     0.00331543     -7948.5552283940 -5.31E-02
    81 Broy./Diag. 0.40E-01   12.2     0.00843204     -7948.4783531813  7.69E-02
    82 Broy./Diag. 0.40E-01   12.3     0.00727831     -7948.9262444730 -4.48E-01
    83 Broy./Diag. 0.40E-01   12.3     0.00406437     -7948.7322873010  1.94E-01
    84 Broy./Diag. 0.40E-01   12.3     0.00675837     -7948.6138400259  1.18E-01
    85 Broy./Diag. 0.40E-01   12.3     0.00485393     -7948.5421874746  7.17E-02
    86 Broy./Diag. 0.40E-01   12.3     0.00438162     -7948.5204662661  2.17E-02
    87 Broy./Diag. 0.40E-01   12.3     0.00753598     -7948.4081587280  1.12E-01
    88 Broy./Diag. 0.40E-01   12.3     0.00350622     -7948.6899319834 -2.82E-01
    89 Broy./Diag. 0.40E-01   12.3     0.00604761     -7948.4978281702  1.92E-01
    90 Broy./Diag. 0.40E-01   12.3     0.00857243     -7948.4769865759  2.08E-02
    91 Broy./Diag. 0.40E-01   12.3     0.00417344     -7948.2203170047  2.57E-01
    92 Broy./Diag. 0.40E-01   12.3     0.00618673     -7948.4430144158 -2.23E-01
    93 Broy./Diag. 0.40E-01   12.3     0.00091554     -7948.2177055924  2.25E-01
    94 Broy./Diag. 0.40E-01   12.3     0.00445270     -7948.2164118261  1.29E-03
