 DBCSR| CPU Multiplication driver                                           XSMM (U)
 DBCSR| Multrec recursion limit                                              512 (U)
 DBCSR| Multiplication stack size                                           1000 (D)
 DBCSR| Maximum elements for images                                    UNLIMITED (U)
 DBCSR| Multiplicative factor virtual images                                   1 (U)
 DBCSR| Use multiplication densification                                       T (D)
 DBCSR| Multiplication size stacks                                             3 (U)
 DBCSR| Use memory pool for CPU allocation                                     F (U)
 DBCSR| Number of 3D layers                                               SINGLE (U)
 DBCSR| Use MPI memory allocation                                              F (U)
 DBCSR| Use RMA algorithm                                                      F (U)
 DBCSR| Use Communication thread                                               T (U)
 DBCSR| Communication thread load                                             87 (D)
 DBCSR| MPI: My process id                                                     0
 DBCSR| MPI: Number of processes                                             128
 DBCSR| OMP: Current number of threads                                         1
 DBCSR| OMP: Max number of threads                                             1
 DBCSR| Split modifier for TAS multiplication algorithm                  1.0E+00 (U)


  **** **** ******  **  PROGRAM STARTED AT               2023-02-15 13:12:25.271
 ***** ** ***  *** **   PROGRAM STARTED ON                             nid001541
 **    ****   ******    PROGRAM STARTED BY                                cahart
 ***** **    ** ** **   PROGRAM PROCESS ID                                208698
  **** **  *******  **  PROGRAM STARTED IN /mnt/lustre/a2fs-work2/work/e05/e05/c
                                           ahart/postdoc/masters/ni/archer2/slab
                                           /optimise/magnetisation/scf_1e-4_temp
                                           -2000_mos-1000_alpha-0.08_beta-1.5_pe
                                           riodic-xyz/search/0.30_0.7

 CP2K| version string:                 CP2K version 2023.1 (Development Version)
 CP2K| source code revision number:                                  git:964cd58
 CP2K| cp2kflags: omp libint fftw3 libxc elpa parallel scalapack xsmm plumed2 mk
 CP2K|            l
 CP2K| is freely available from                            https://www.cp2k.org/
 CP2K| Program compiled at                          Mon 13 Feb 17:05:14 GMT 2023
 CP2K| Program compiled on                                                  ln01
 CP2K| Program compiled for                                              ARCHER2
 CP2K| Data directory path    /work/e05/e05/cahart/cp2k/cp2k-2023.1/cp2k-2023.1-
 CP2K| Input file name                                                  cp2k.inp

 GLOBAL| Force Environment number                                              1
 GLOBAL| Basis set file name                                        BASIS_MOLOPT
 GLOBAL| Potential file name                                      GTH_POTENTIALS
 GLOBAL| MM Potential file name                                     MM_POTENTIAL
 GLOBAL| Coordinate file name                                      __STD_INPUT__
 GLOBAL| Method name                                                        CP2K
 GLOBAL| Project name                                                    Ni_bulk
 GLOBAL| Run type                                                         ENERGY
 GLOBAL| FFT library                                                       FFTW3
 GLOBAL| Diagonalization library                                            ELPA
 GLOBAL| DGEMM library                                                      BLAS
 GLOBAL| Minimum number of eigenvectors for ELPA usage                        16
 GLOBAL| Orthonormality check for eigenvectors                          DISABLED
 GLOBAL| Matrix multiplication library                                 ScaLAPACK
 GLOBAL| All-to-all communication in single precision                          F
 GLOBAL| FFTs using library dependent lengths                                  F
 GLOBAL| Grid backend                                                       AUTO
 GLOBAL| Global print level                                               MEDIUM
 GLOBAL| MPI I/O enabled                                                       T
 GLOBAL| Total number of message passing processes                           128
 GLOBAL| Number of threads for this process                                    1
 GLOBAL| This output is from process                                           0
 GLOBAL| Stack size for threads created by OpenMP (OMP_STACKSIZE)        default
 GLOBAL| CPU model name                          AMD EPYC 7742 64-Core Processor
 GLOBAL| CPUID                                                              1002

 MEMORY| system memory details [Kb]
 MEMORY|                        rank 0           min           max       average
 MEMORY| MemTotal            263527848     263527848     263527848     263527848
 MEMORY| MemFree             239093384     239093384     239093384     239093384
 MEMORY| Buffers                 25816         25816         25816         25816
 MEMORY| Cached                 656308        656252        656308        656262
 MEMORY| Slab                  1529388       1529336       1529388       1529346
 MEMORY| SReclaimable           102980        102980        103036        103025
 MEMORY| MemLikelyFree       239878488     239878432     239878488     239878487


 *** Fundamental physical constants (SI units) ***

 *** Literature: B. J. Mohr and B. N. Taylor,
 ***             CODATA recommended values of the fundamental physical
 ***             constants: 2006, Web Version 5.1
 ***             http://physics.nist.gov/constants

 Speed of light in vacuum [m/s]                             2.99792458000000E+08
 Magnetic constant or permeability of vacuum [N/A**2]       1.25663706143592E-06
 Electric constant or permittivity of vacuum [F/m]          8.85418781762039E-12
 Planck constant (h) [J*s]                                  6.62606896000000E-34
 Planck constant (h-bar) [J*s]                              1.05457162825177E-34
 Elementary charge [C]                                      1.60217648700000E-19
 Electron mass [kg]                                         9.10938215000000E-31
 Electron g factor [ ]                                     -2.00231930436220E+00
 Proton mass [kg]                                           1.67262163700000E-27
 Fine-structure constant                                    7.29735253760000E-03
 Rydberg constant [1/m]                                     1.09737315685270E+07
 Avogadro constant [1/mol]                                  6.02214179000000E+23
 Boltzmann constant [J/K]                                   1.38065040000000E-23
 Atomic mass unit [kg]                                      1.66053878200000E-27
 Bohr radius [m]                                            5.29177208590000E-11

 *** Conversion factors ***

 [u] -> [a.u.]                                              1.82288848426455E+03
 [Angstrom] -> [Bohr] = [a.u.]                              1.88972613288564E+00
 [a.u.] = [Bohr] -> [Angstrom]                              5.29177208590000E-01
 [a.u.] -> [s]                                              2.41888432650478E-17
 [a.u.] -> [fs]                                             2.41888432650478E-02
 [a.u.] -> [J]                                              4.35974393937059E-18
 [a.u.] -> [N]                                              8.23872205491840E-08
 [a.u.] -> [K]                                              3.15774647902944E+05
 [a.u.] -> [kJ/mol]                                         2.62549961709828E+03
 [a.u.] -> [kcal/mol]                                       6.27509468713739E+02
 [a.u.] -> [Pa]                                             2.94210107994716E+13
 [a.u.] -> [bar]                                            2.94210107994716E+08
 [a.u.] -> [atm]                                            2.90362800883016E+08
 [a.u.] -> [eV]                                             2.72113838565563E+01
 [a.u.] -> [Hz]                                             6.57968392072181E+15
 [a.u.] -> [1/cm] (wave numbers)                            2.19474631370540E+05
 [a.u./Bohr**2] -> [1/cm]                                   5.14048714338585E+03
 

 CELL_TOP| Volume [angstrom^3]:                                       983.249569
 CELL_TOP| Vector a [angstrom     7.012     0.000     0.000   |a| =     7.011596
 CELL_TOP| Vector b [angstrom     0.000     7.012     0.000   |b| =     7.011596
 CELL_TOP| Vector c [angstrom     0.000     0.000    20.000   |c| =    20.000000
 CELL_TOP| Angle (b,c), alpha [degree]:                                90.000000
 CELL_TOP| Angle (a,c), beta  [degree]:                                90.000000
 CELL_TOP| Angle (a,b), gamma [degree]:                                90.000000
 CELL_TOP| Numerically orthorhombic:                                         YES
 CELL_TOP| Periodicity                                                       XYZ

 GENERATE|  Preliminary Number of Bonds generated:                             0
 GENERATE|  Achieved consistency in connectivity generation.

 CELL| Volume [angstrom^3]:                                           983.249569
 CELL| Vector a [angstrom]:       7.012     0.000     0.000   |a| =     7.011596
 CELL| Vector b [angstrom]:       0.000     7.012     0.000   |b| =     7.011596
 CELL| Vector c [angstrom]:       0.000     0.000    20.000   |c| =    20.000000
 CELL| Angle (b,c), alpha [degree]:                                    90.000000
 CELL| Angle (a,c), beta  [degree]:                                    90.000000
 CELL| Angle (a,b), gamma [degree]:                                    90.000000
 CELL| Numerically orthorhombic:                                             YES
 CELL| Periodicity                                                           XYZ

 CELL_REF| Volume [angstrom^3]:                                       983.249569
 CELL_REF| Vector a [angstrom     7.012     0.000     0.000   |a| =     7.011596
 CELL_REF| Vector b [angstrom     0.000     7.012     0.000   |b| =     7.011596
 CELL_REF| Vector c [angstrom     0.000     0.000    20.000   |c| =    20.000000
 CELL_REF| Angle (b,c), alpha [degree]:                                90.000000
 CELL_REF| Angle (a,c), beta  [degree]:                                90.000000
 CELL_REF| Angle (a,b), gamma [degree]:                                90.000000
 CELL_REF| Numerically orthorhombic:                                         YES
 CELL_REF| Periodicity                                                       XYZ

 *** WARNING in cryssym.F:165 :: Symmetry library SPGLIB not available ***


 *******************************************************************************
                                    Kpoints
 *******************************************************************************
 BRILLOUIN| K-point scheme                                        Monkhorst-Pack
 BRILLOUIN| K-Point grid                                             4    4    1
 BRILLOUIN| Accuracy in Symmetry determination                      0.100000E-05
 BRILLOUIN| K-Point point group symmetrization                               OFF
 BRILLOUIN| Wavefunction type                                            COMPLEX
 BRILLOUIN| List of Kpoints [2 Pi/Bohr]                                        8
 BRILLOUIN| Number           Weight            X              Y              Z
 BRILLOUIN|     1           0.12500       -0.37500       -0.37500        0.00000
 BRILLOUIN|     2           0.12500       -0.37500       -0.12500        0.00000
 BRILLOUIN|     3           0.12500       -0.37500        0.12500        0.00000
 BRILLOUIN|     4           0.12500       -0.37500        0.37500        0.00000
 BRILLOUIN|     5           0.12500       -0.12500       -0.37500        0.00000
 BRILLOUIN|     6           0.12500       -0.12500       -0.12500        0.00000
 BRILLOUIN|     7           0.12500       -0.12500        0.12500        0.00000
 BRILLOUIN|     8           0.12500       -0.12500        0.37500        0.00000
 *******************************************************************************

 *******************************************************************************
 *******************************************************************************
 **                                                                           **
 **     #####                         ##              ##                      **
 **    ##   ##            ##          ##              ##                      **
 **   ##     ##                       ##            ######                    **
 **   ##     ##  ##   ##  ##   #####  ##  ##   ####   ##    #####    #####    **
 **   ##     ##  ##   ##  ##  ##      ## ##   ##      ##   ##   ##  ##   ##   **
 **   ##  ## ##  ##   ##  ##  ##      ####     ###    ##   ######   ######    **
 **    ##  ###   ##   ##  ##  ##      ## ##      ##   ##   ##       ##        **
 **     #######   #####   ##   #####  ##  ##  ####    ##    #####   ##        **
 **           ##                                                    ##        **
 **                                                                           **
 **                                                ... make the atoms dance   **
 **                                                                           **
 **            Copyright (C) by CP2K developers group (2000-2023)             **
 **                      J. Chem. Phys. 152, 194103 (2020)                    **
 **                                                                           **
 *******************************************************************************

 *** WARNING in qs_environment.F:1456 :: Number of electrons will be ***
 *** overwritten by NELEC_ALPHA and NELEC_BETA, multiplicity will be ***
 *** ignored.                                                        ***

 Number of electrons should be                                               576
 Sum of NELEC_ALPHA and NELEC_BETA is                                    576.000

 *** WARNING in qs_environment.F:1532 :: More ADDED_MOs requested for beta ***
 *** spin than available.                                                  ***


 *** WARNING in qs_environment.F:1548 :: More added MOs requested than     ***
 *** available. The full set of unoccupied MOs will be used. Use           ***
 *** 'ADDED_MOS -1' to always use all available MOs and to get rid of this ***
 *** warning.                                                              ***


 DFT| Spin unrestricted (spin-polarized) Kohn-Sham calculation               UKS
 DFT| Multiplicity                                                             1
 DFT| Number of spin states                                                    2
 DFT| Charge                                                                   0
 DFT| Self-interaction correction (SIC)                                       NO
 DFT| Cutoffs: density                                              1.000000E-10
 DFT|          gradient                                             1.000000E-10
 DFT|          tau                                                  1.000000E-10
 DFT|          cutoff_smoothing_range                               0.000000E+00
 DFT| XC density smoothing                                                  NONE
 DFT| XC derivatives                                                          PW

 FUNCTIONAL| PBE:
 FUNCTIONAL| J.P.Perdew, K.Burke, M.Ernzerhof, Phys. Rev. Letter, vol. 77, n 18,
 FUNCTIONAL|  pp. 3865-3868, (1996){spin polarized}                             

 vdW POTENTIAL|                                                   Pair Potential
 vdW POTENTIAL|          DFT-D3 (Version 3.1)
 vdW POTENTIAL|          Potential Form: S. Grimme et al, JCP 132: 154104 (2010)
 vdW POTENTIAL|          Zero Damping
 vdW POTENTIAL|          Cutoff Radius [Bohr]:                             20.00
 vdW POTENTIAL|          s6 Scaling Factor:                               1.0000
 vdW POTENTIAL|          sr6 Scaling Factor:                              1.2170
 vdW POTENTIAL|          s8 Scaling Factor:                               0.7220
 vdW POTENTIAL|          Cutoff for CN calculation:                   0.1000E-05

 QS| Method:                                                                 GPW
 QS| Density plane wave grid type                        NON-SPHERICAL FULLSPACE
 QS| Number of grid levels:                                                    5
 QS| Density cutoff [a.u.]:                                                300.0
 QS| Multi grid cutoff [a.u.]: 1) grid level                               300.0
 QS|                           2) grid level                               100.0
 QS|                           3) grid level                                33.3
 QS|                           4) grid level                                11.1
 QS|                           5) grid level                                 3.7
 QS| Grid level progression factor:                                          3.0
 QS| Relative density cutoff [a.u.]:                                        30.0
 QS| Interaction thresholds: eps_pgf_orb:                                1.0E-06
 QS|                         eps_filter_matrix:                          0.0E+00
 QS|                         eps_core_charge:                            1.0E-14
 QS|                         eps_rho_gspace:                             1.0E-12
 QS|                         eps_rho_rspace:                             1.0E-12
 QS|                         eps_gvg_rspace:                             1.0E-06
 QS|                         eps_ppl:                                    1.0E-02
 QS|                         eps_ppnl:                                   1.0E-08


 ATOMIC KIND INFORMATION

  1. Atomic kind: Ni_i                                  Number of atoms:      16

     Orbital Basis Set                                        DZVP-MOLOPT-SR-GTH

       Number of orbital shell sets:                                           1
       Number of orbital shells:                                               8
       Number of primitive Cartesian functions:                                6
       Number of Cartesian basis functions:                                   31
       Number of spherical basis functions:                                   26
       Norm type:                                                              2

       Normalised Cartesian orbitals:

                        Set   Shell   Orbital            Exponent    Coefficient

                          1       1    2s               10.077428      -0.684558
                                                         5.847736      -0.844524
                                                         2.494033       1.088856
                                                         0.988355       0.395503
                                                         0.344978       0.010224
                                                         0.099466      -0.003250

                          1       2    3s               10.077428       0.096747
                                                         5.847736       0.162504
                                                         2.494033      -0.297192
                                                         0.988355      -0.319752
                                                         0.344978       0.088318
                                                         0.099466       0.118587

                          1       3    4s               10.077428       0.036437
                                                         5.847736      -0.381480
                                                         2.494033       0.003759
                                                         0.988355      -1.048256
                                                         0.344978       0.855825
                                                         0.099466      -0.176350

                          1       4    3px              10.077428      -3.133913
                                                         5.847736       3.027656
                                                         2.494033       2.353227
                                                         0.988355       0.554184
                                                         0.344978       0.019462
                                                         0.099466      -0.000291
                          1       4    3py              10.077428      -3.133913
                                                         5.847736       3.027656
                                                         2.494033       2.353227
                                                         0.988355       0.554184
                                                         0.344978       0.019462
                                                         0.099466      -0.000291
                          1       4    3pz              10.077428      -3.133913
                                                         5.847736       3.027656
                                                         2.494033       2.353227
                                                         0.988355       0.554184
                                                         0.344978       0.019462
                                                         0.099466      -0.000291

                          1       5    4px              10.077428      -0.112729
                                                         5.847736      -0.114008
                                                         2.494033      -0.347303
                                                         0.988355      -0.110323
                                                         0.344978       0.154096
                                                         0.099466       0.058386
                          1       5    4py              10.077428      -0.112729
                                                         5.847736      -0.114008
                                                         2.494033      -0.347303
                                                         0.988355      -0.110323
                                                         0.344978       0.154096
                                                         0.099466       0.058386
                          1       5    4pz              10.077428      -0.112729
                                                         5.847736      -0.114008
                                                         2.494033      -0.347303
                                                         0.988355      -0.110323
                                                         0.344978       0.154096
                                                         0.099466       0.058386

                          1       6    4dx2             10.077428       8.232726
                                                         5.847736       9.105758
                                                         2.494033       2.849835
                                                         0.988355       0.554319
                                                         0.344978       0.067245
                                                         0.099466       0.001940
                          1       6    4dxy             10.077428      14.259500
                                                         5.847736      15.771636
                                                         2.494033       4.936060
                                                         0.988355       0.960109
                                                         0.344978       0.116472
                                                         0.099466       0.003360
                          1       6    4dxz             10.077428      14.259500
                                                         5.847736      15.771636
                                                         2.494033       4.936060
                                                         0.988355       0.960109
                                                         0.344978       0.116472
                                                         0.099466       0.003360
                          1       6    4dy2             10.077428       8.232726
                                                         5.847736       9.105758
                                                         2.494033       2.849835
                                                         0.988355       0.554319
                                                         0.344978       0.067245
                                                         0.099466       0.001940
                          1       6    4dyz             10.077428      14.259500
                                                         5.847736      15.771636
                                                         2.494033       4.936060
                                                         0.988355       0.960109
                                                         0.344978       0.116472
                                                         0.099466       0.003360
                          1       6    4dz2             10.077428       8.232726
                                                         5.847736       9.105758
                                                         2.494033       2.849835
                                                         0.988355       0.554319
                                                         0.344978       0.067245
                                                         0.099466       0.001940

                          1       7    5dx2             10.077428      -2.715373
                                                         5.847736      -4.020640
                                                         2.494033      -1.397569
                                                         0.988355      -0.076143
                                                         0.344978       0.033435
                                                         0.099466       0.026032
                          1       7    5dxy             10.077428      -4.703164
                                                         5.847736      -6.963952
                                                         2.494033      -2.420661
                                                         0.988355      -0.131883
                                                         0.344978       0.057911
                                                         0.099466       0.045088
                          1       7    5dxz             10.077428      -4.703164
                                                         5.847736      -6.963952
                                                         2.494033      -2.420661
                                                         0.988355      -0.131883
                                                         0.344978       0.057911
                                                         0.099466       0.045088
                          1       7    5dy2             10.077428      -2.715373
                                                         5.847736      -4.020640
                                                         2.494033      -1.397569
                                                         0.988355      -0.076143
                                                         0.344978       0.033435
                                                         0.099466       0.026032
                          1       7    5dyz             10.077428      -4.703164
                                                         5.847736      -6.963952
                                                         2.494033      -2.420661
                                                         0.988355      -0.131883
                                                         0.344978       0.057911
                                                         0.099466       0.045088
                          1       7    5dz2             10.077428      -2.715373
                                                         5.847736      -4.020640
                                                         2.494033      -1.397569
                                                         0.988355      -0.076143
                                                         0.344978       0.033435
                                                         0.099466       0.026032

                          1       8    5fx3             10.077428      -0.467694
                                                         5.847736       0.618100
                                                         2.494033       0.066069
                                                         0.988355       0.262898
                                                         0.344978       0.004720
                                                         0.099466       0.007748
                          1       8    5fx2y            10.077428      -1.045795
                                                         5.847736       1.382114
                                                         2.494033       0.147734
                                                         0.988355       0.587859
                                                         0.344978       0.010555
                                                         0.099466       0.017325
                          1       8    5fx2z            10.077428      -1.045795
                                                         5.847736       1.382114
                                                         2.494033       0.147734
                                                         0.988355       0.587859
                                                         0.344978       0.010555
                                                         0.099466       0.017325
                          1       8    5fxy2            10.077428      -1.045795
                                                         5.847736       1.382114
                                                         2.494033       0.147734
                                                         0.988355       0.587859
                                                         0.344978       0.010555
                                                         0.099466       0.017325
                          1       8    5fxyz            10.077428      -1.811371
                                                         5.847736       2.393892
                                                         2.494033       0.255883
                                                         0.988355       1.018201
                                                         0.344978       0.018282
                                                         0.099466       0.030008
                          1       8    5fxz2            10.077428      -1.045795
                                                         5.847736       1.382114
                                                         2.494033       0.147734
                                                         0.988355       0.587859
                                                         0.344978       0.010555
                                                         0.099466       0.017325
                          1       8    5fy3             10.077428      -0.467694
                                                         5.847736       0.618100
                                                         2.494033       0.066069
                                                         0.988355       0.262898
                                                         0.344978       0.004720
                                                         0.099466       0.007748
                          1       8    5fy2z            10.077428      -1.045795
                                                         5.847736       1.382114
                                                         2.494033       0.147734
                                                         0.988355       0.587859
                                                         0.344978       0.010555
                                                         0.099466       0.017325
                          1       8    5fyz2            10.077428      -1.045795
                                                         5.847736       1.382114
                                                         2.494033       0.147734
                                                         0.988355       0.587859
                                                         0.344978       0.010555
                                                         0.099466       0.017325
                          1       8    5fz3             10.077428      -0.467694
                                                         5.847736       0.618100
                                                         2.494033       0.066069
                                                         0.988355       0.262898
                                                         0.344978       0.004720
                                                         0.099466       0.007748

       Atomic covalent radius [Angstrom]:                                  1.150

       Atomic van der Waals radius [Angstrom]:                             1.630

     GTH Potential information for                                   GTH-PBE-q18

       Description:                       Goedecker-Teter-Hutter pseudopotential
                                           Goedecker et al., PRB 54, 1703 (1996)
                                          Hartwigsen et al., PRB 58, 3641 (1998)
                                                      Krack, TCA 114, 145 (2005)

       Gaussian exponent of the core charge distribution:               4.081633
       Electronic configuration (s p d ...):                           4   6   8

       Parameters of the local part of the GTH pseudopotential:

                          rloc        C1          C2          C3          C4
                        0.350000    2.102166    0.648484

       Parameters of the non-local part of the GTH pseudopotential:

                   l      r(l)      h(i,j,l)

                   0    0.261295    0.622658    9.970227
                                    9.970227  -12.871507
                   1    0.224253  -11.142708   12.429566
                                   12.429566  -14.706861
                   2    0.215348  -12.628146

  2. Atomic kind: Ni_b                                  Number of atoms:      16

     Orbital Basis Set                                        DZVP-MOLOPT-SR-GTH

       Number of orbital shell sets:                                           1
       Number of orbital shells:                                               8
       Number of primitive Cartesian functions:                                6
       Number of Cartesian basis functions:                                   31
       Number of spherical basis functions:                                   26
       Norm type:                                                              2

       Normalised Cartesian orbitals:

                        Set   Shell   Orbital            Exponent    Coefficient

                          1       1    2s               10.077428      -0.684558
                                                         5.847736      -0.844524
                                                         2.494033       1.088856
                                                         0.988355       0.395503
                                                         0.344978       0.010224
                                                         0.099466      -0.003250

                          1       2    3s               10.077428       0.096747
                                                         5.847736       0.162504
                                                         2.494033      -0.297192
                                                         0.988355      -0.319752
                                                         0.344978       0.088318
                                                         0.099466       0.118587

                          1       3    4s               10.077428       0.036437
                                                         5.847736      -0.381480
                                                         2.494033       0.003759
                                                         0.988355      -1.048256
                                                         0.344978       0.855825
                                                         0.099466      -0.176350

                          1       4    3px              10.077428      -3.133913
                                                         5.847736       3.027656
                                                         2.494033       2.353227
                                                         0.988355       0.554184
                                                         0.344978       0.019462
                                                         0.099466      -0.000291
                          1       4    3py              10.077428      -3.133913
                                                         5.847736       3.027656
                                                         2.494033       2.353227
                                                         0.988355       0.554184
                                                         0.344978       0.019462
                                                         0.099466      -0.000291
                          1       4    3pz              10.077428      -3.133913
                                                         5.847736       3.027656
                                                         2.494033       2.353227
                                                         0.988355       0.554184
                                                         0.344978       0.019462
                                                         0.099466      -0.000291

                          1       5    4px              10.077428      -0.112729
                                                         5.847736      -0.114008
                                                         2.494033      -0.347303
                                                         0.988355      -0.110323
                                                         0.344978       0.154096
                                                         0.099466       0.058386
                          1       5    4py              10.077428      -0.112729
                                                         5.847736      -0.114008
                                                         2.494033      -0.347303
                                                         0.988355      -0.110323
                                                         0.344978       0.154096
                                                         0.099466       0.058386
                          1       5    4pz              10.077428      -0.112729
                                                         5.847736      -0.114008
                                                         2.494033      -0.347303
                                                         0.988355      -0.110323
                                                         0.344978       0.154096
                                                         0.099466       0.058386

                          1       6    4dx2             10.077428       8.232726
                                                         5.847736       9.105758
                                                         2.494033       2.849835
                                                         0.988355       0.554319
                                                         0.344978       0.067245
                                                         0.099466       0.001940
                          1       6    4dxy             10.077428      14.259500
                                                         5.847736      15.771636
                                                         2.494033       4.936060
                                                         0.988355       0.960109
                                                         0.344978       0.116472
                                                         0.099466       0.003360
                          1       6    4dxz             10.077428      14.259500
                                                         5.847736      15.771636
                                                         2.494033       4.936060
                                                         0.988355       0.960109
                                                         0.344978       0.116472
                                                         0.099466       0.003360
                          1       6    4dy2             10.077428       8.232726
                                                         5.847736       9.105758
                                                         2.494033       2.849835
                                                         0.988355       0.554319
                                                         0.344978       0.067245
                                                         0.099466       0.001940
                          1       6    4dyz             10.077428      14.259500
                                                         5.847736      15.771636
                                                         2.494033       4.936060
                                                         0.988355       0.960109
                                                         0.344978       0.116472
                                                         0.099466       0.003360
                          1       6    4dz2             10.077428       8.232726
                                                         5.847736       9.105758
                                                         2.494033       2.849835
                                                         0.988355       0.554319
                                                         0.344978       0.067245
                                                         0.099466       0.001940

                          1       7    5dx2             10.077428      -2.715373
                                                         5.847736      -4.020640
                                                         2.494033      -1.397569
                                                         0.988355      -0.076143
                                                         0.344978       0.033435
                                                         0.099466       0.026032
                          1       7    5dxy             10.077428      -4.703164
                                                         5.847736      -6.963952
                                                         2.494033      -2.420661
                                                         0.988355      -0.131883
                                                         0.344978       0.057911
                                                         0.099466       0.045088
                          1       7    5dxz             10.077428      -4.703164
                                                         5.847736      -6.963952
                                                         2.494033      -2.420661
                                                         0.988355      -0.131883
                                                         0.344978       0.057911
                                                         0.099466       0.045088
                          1       7    5dy2             10.077428      -2.715373
                                                         5.847736      -4.020640
                                                         2.494033      -1.397569
                                                         0.988355      -0.076143
                                                         0.344978       0.033435
                                                         0.099466       0.026032
                          1       7    5dyz             10.077428      -4.703164
                                                         5.847736      -6.963952
                                                         2.494033      -2.420661
                                                         0.988355      -0.131883
                                                         0.344978       0.057911
                                                         0.099466       0.045088
                          1       7    5dz2             10.077428      -2.715373
                                                         5.847736      -4.020640
                                                         2.494033      -1.397569
                                                         0.988355      -0.076143
                                                         0.344978       0.033435
                                                         0.099466       0.026032

                          1       8    5fx3             10.077428      -0.467694
                                                         5.847736       0.618100
                                                         2.494033       0.066069
                                                         0.988355       0.262898
                                                         0.344978       0.004720
                                                         0.099466       0.007748
                          1       8    5fx2y            10.077428      -1.045795
                                                         5.847736       1.382114
                                                         2.494033       0.147734
                                                         0.988355       0.587859
                                                         0.344978       0.010555
                                                         0.099466       0.017325
                          1       8    5fx2z            10.077428      -1.045795
                                                         5.847736       1.382114
                                                         2.494033       0.147734
                                                         0.988355       0.587859
                                                         0.344978       0.010555
                                                         0.099466       0.017325
                          1       8    5fxy2            10.077428      -1.045795
                                                         5.847736       1.382114
                                                         2.494033       0.147734
                                                         0.988355       0.587859
                                                         0.344978       0.010555
                                                         0.099466       0.017325
                          1       8    5fxyz            10.077428      -1.811371
                                                         5.847736       2.393892
                                                         2.494033       0.255883
                                                         0.988355       1.018201
                                                         0.344978       0.018282
                                                         0.099466       0.030008
                          1       8    5fxz2            10.077428      -1.045795
                                                         5.847736       1.382114
                                                         2.494033       0.147734
                                                         0.988355       0.587859
                                                         0.344978       0.010555
                                                         0.099466       0.017325
                          1       8    5fy3             10.077428      -0.467694
                                                         5.847736       0.618100
                                                         2.494033       0.066069
                                                         0.988355       0.262898
                                                         0.344978       0.004720
                                                         0.099466       0.007748
                          1       8    5fy2z            10.077428      -1.045795
                                                         5.847736       1.382114
                                                         2.494033       0.147734
                                                         0.988355       0.587859
                                                         0.344978       0.010555
                                                         0.099466       0.017325
                          1       8    5fyz2            10.077428      -1.045795
                                                         5.847736       1.382114
                                                         2.494033       0.147734
                                                         0.988355       0.587859
                                                         0.344978       0.010555
                                                         0.099466       0.017325
                          1       8    5fz3             10.077428      -0.467694
                                                         5.847736       0.618100
                                                         2.494033       0.066069
                                                         0.988355       0.262898
                                                         0.344978       0.004720
                                                         0.099466       0.007748

       Atomic covalent radius [Angstrom]:                                  1.150

       Atomic van der Waals radius [Angstrom]:                             1.630

     GTH Potential information for                                   GTH-PBE-q18

       Description:                       Goedecker-Teter-Hutter pseudopotential
                                           Goedecker et al., PRB 54, 1703 (1996)
                                          Hartwigsen et al., PRB 58, 3641 (1998)
                                                      Krack, TCA 114, 145 (2005)

       Gaussian exponent of the core charge distribution:               4.081633
       Electronic configuration (s p d ...):                           4   6   8

       Parameters of the local part of the GTH pseudopotential:

                          rloc        C1          C2          C3          C4
                        0.350000    2.102166    0.648484

       Parameters of the non-local part of the GTH pseudopotential:

                   l      r(l)      h(i,j,l)

                   0    0.261295    0.622658    9.970227
                                    9.970227  -12.871507
                   1    0.224253  -11.142708   12.429566
                                   12.429566  -14.706861
                   2    0.215348  -12.628146


 MOLECULE KIND INFORMATION


 All atoms are their own molecule, skipping detailed information


 TOTAL NUMBERS AND MAXIMUM NUMBERS

  Total number of            - Atomic kinds:                                   2
                             - Atoms:                                         32
                             - Shell sets:                                    32
                             - Shells:                                       256
                             - Primitive Cartesian functions:                192
                             - Cartesian basis functions:                    992
                             - Spherical basis functions:                    832

  Maximum angular momentum of- Orbital basis functions:                        3
                             - Local part of the GTH pseudopotential:          2
                             - Non-local part of the GTH pseudopotential:      3


 MODULE QUICKSTEP: ATOMIC COORDINATES IN ANGSTROM

   Atom Kind Element         X             Y             Z       Z(eff)     Mass
      1    1 Ni   28      0.876298      0.876298      7.370500  18.0000  58.6934
      2    1 Ni   28      0.876298      4.382298      7.370500  18.0000  58.6934
      3    1 Ni   28      2.629298      2.629298      7.370500  18.0000  58.6934
      4    1 Ni   28      2.629298      6.135298      7.370500  18.0000  58.6934
      5    1 Ni   28      4.382298      0.876298      7.370500  18.0000  58.6934
      6    1 Ni   28      4.382298      4.382298      7.370500  18.0000  58.6934
      7    1 Ni   28      6.135298      2.629298      7.370500  18.0000  58.6934
      8    1 Ni   28      6.135298      6.135298      7.370500  18.0000  58.6934
      9    2 Ni   28      0.876298      2.629298      9.123500  18.0000  58.6934
     10    2 Ni   28      0.876298      6.135298      9.123500  18.0000  58.6934
     11    2 Ni   28      2.629298      0.876298      9.123500  18.0000  58.6934
     12    2 Ni   28      2.629298      4.382298      9.123500  18.0000  58.6934
     13    2 Ni   28      4.382298      2.629298      9.123500  18.0000  58.6934
     14    2 Ni   28      4.382298      6.135298      9.123500  18.0000  58.6934
     15    2 Ni   28      6.135298      0.876298      9.123500  18.0000  58.6934
     16    2 Ni   28      6.135298      4.382298      9.123500  18.0000  58.6934
     17    2 Ni   28      0.876298      0.876298     10.876500  18.0000  58.6934
     18    2 Ni   28      0.876298      4.382298     10.876500  18.0000  58.6934
     19    2 Ni   28      2.629298      2.629298     10.876500  18.0000  58.6934
     20    2 Ni   28      2.629298      6.135298     10.876500  18.0000  58.6934
     21    2 Ni   28      4.382298      0.876298     10.876500  18.0000  58.6934
     22    2 Ni   28      4.382298      4.382298     10.876500  18.0000  58.6934
     23    2 Ni   28      6.135298      2.629298     10.876500  18.0000  58.6934
     24    2 Ni   28      6.135298      6.135298     10.876500  18.0000  58.6934
     25    1 Ni   28      0.876298      2.629298     12.629500  18.0000  58.6934
     26    1 Ni   28      0.876298      6.135298     12.629500  18.0000  58.6934
     27    1 Ni   28      2.629298      0.876298     12.629500  18.0000  58.6934
     28    1 Ni   28      2.629298      4.382298     12.629500  18.0000  58.6934
     29    1 Ni   28      4.382298      2.629298     12.629500  18.0000  58.6934
     30    1 Ni   28      4.382298      6.135298     12.629500  18.0000  58.6934
     31    1 Ni   28      6.135298      0.876298     12.629500  18.0000  58.6934
     32    1 Ni   28      6.135298      4.382298     12.629500  18.0000  58.6934



 SCF PARAMETERS         Density guess:                                    ATOMIC
                        --------------------------------------------------------
                        max_scf:                                             500
                        max_scf_history:                                       0
                        max_diis:                                              4
                        --------------------------------------------------------
                        eps_scf:                                        1.00E-04
                        eps_scf_history:                                0.00E+00
                        eps_diis:                                       1.00E-01
                        eps_eigval:                                     1.00E-05
                        --------------------------------------------------------
                        level_shift [a.u.]:                             0.000000
                        added MOs                                       536  552
                        --------------------------------------------------------
                        Mixing method:                            BROYDEN_MIXING
                                                charge density mixing in g-space
                        --------------------------------------------------------
                        Smear method:                                FERMI_DIRAC
                        Electronic temperature [K]:                       2000.0
                        Electronic temperature [a.u.]:                  6.33E-03
                        Accuracy threshold:                             1.00E-10
                        --------------------------------------------------------
                        No outer SCF

 PW_GRID| Information for grid number                                          1
 PW_GRID| Grid distributed over                                   128 processors
 PW_GRID| Real space group dimensions                                     8   16
 PW_GRID| the grid is blocked:                                               YES
 PW_GRID| Cutoff [a.u.]                                                    300.0
 PW_GRID| spherical cutoff:                                                   NO
 PW_GRID|   Bounds   1            -54      53                Points:         108
 PW_GRID|   Bounds   2            -54      53                Points:         108
 PW_GRID|   Bounds   3           -150     149                Points:         300
 PW_GRID| Volume element (a.u.^3)  0.1896E-02     Volume (a.u.^3)      6635.2971
 PW_GRID| Grid span                                                    FULLSPACE
 PW_GRID|   Distribution                         Average         Max         Min
 PW_GRID|   G-Vectors                            27337.5       28728       25272
 PW_GRID|   G-Rays                                 253.1         266         234
 PW_GRID|   Real Space Points                    27337.5       28728       25272

 PW_GRID| Information for grid number                                          2
 PW_GRID| Number of the reference grid                                         1
 PW_GRID| Grid distributed over                                   128 processors
 PW_GRID| Real space group dimensions                                     8   16
 PW_GRID| the grid is blocked:                                                NO
 PW_GRID| Cutoff [a.u.]                                                    100.0
 PW_GRID| spherical cutoff:                                                   NO
 PW_GRID|   Bounds   1            -30      29                Points:          60
 PW_GRID|   Bounds   2            -30      29                Points:          60
 PW_GRID|   Bounds   3            -90      89                Points:         180
 PW_GRID| Volume element (a.u.^3)  0.1024E-01     Volume (a.u.^3)      6635.2971
 PW_GRID| Grid span                                                    FULLSPACE
 PW_GRID|   Distribution                         Average         Max         Min
 PW_GRID|   G-Vectors                             5062.5       15960           0
 PW_GRID|   G-Rays                                  84.4         266           0
 PW_GRID|   Real Space Points                     5062.5        5760        3780

 PW_GRID| Information for grid number                                          3
 PW_GRID| Number of the reference grid                                         1
 PW_GRID| Grid distributed over                                   128 processors
 PW_GRID| Real space group dimensions                                     8   16
 PW_GRID| the grid is blocked:                                                NO
 PW_GRID| Cutoff [a.u.]                                                     33.3
 PW_GRID| spherical cutoff:                                                   NO
 PW_GRID|   Bounds   1            -18      17                Points:          36
 PW_GRID|   Bounds   2            -18      17                Points:          36
 PW_GRID|   Bounds   3            -50      49                Points:         100
 PW_GRID| Volume element (a.u.^3)  0.5120E-01     Volume (a.u.^3)      6635.2971
 PW_GRID| Grid span                                                    FULLSPACE
 PW_GRID|   Distribution                         Average         Max         Min
 PW_GRID|   G-Vectors                             1012.5        9576           0
 PW_GRID|   G-Rays                                  28.1         266           0
 PW_GRID|   Real Space Points                     1012.5        1500         800

 PW_GRID| Information for grid number                                          4
 PW_GRID| Number of the reference grid                                         1
 PW_GRID| Grid distributed over                                   128 processors
 PW_GRID| Real space group dimensions                                     8   16
 PW_GRID| the grid is blocked:                                                NO
 PW_GRID| Cutoff [a.u.]                                                     11.1
 PW_GRID| spherical cutoff:                                                   NO
 PW_GRID|   Bounds   1            -10       9                Points:          20
 PW_GRID|   Bounds   2            -10       9                Points:          20
 PW_GRID|   Bounds   3            -30      29                Points:          60
 PW_GRID| Volume element (a.u.^3)  0.2765         Volume (a.u.^3)      6635.2971
 PW_GRID| Grid span                                                    FULLSPACE
 PW_GRID|   Distribution                         Average         Max         Min
 PW_GRID|   G-Vectors                              187.5        3800           0
 PW_GRID|   G-Rays                                   9.4         190           0
 PW_GRID|   Real Space Points                      187.5         360         120

 PW_GRID| Information for grid number                                          5
 PW_GRID| Number of the reference grid                                         1
 PW_GRID| Grid distributed over                                   128 processors
 PW_GRID| Real space group dimensions                                     8   16
 PW_GRID| the grid is blocked:                                                NO
 PW_GRID| Cutoff [a.u.]                                                      3.7
 PW_GRID| spherical cutoff:                                                   NO
 PW_GRID|   Bounds   1             -6       5                Points:          12
 PW_GRID|   Bounds   2             -6       5                Points:          12
 PW_GRID|   Bounds   3            -18      17                Points:          36
 PW_GRID| Volume element (a.u.^3)   1.280         Volume (a.u.^3)      6635.2971
 PW_GRID| Grid span                                                    FULLSPACE
 PW_GRID|   Distribution                         Average         Max         Min
 PW_GRID|   G-Vectors                               40.5        1296           0
 PW_GRID|   G-Rays                                   3.4         108           0
 PW_GRID|   Real Space Points                       40.5          72           0

 POISSON| Solver                                                        PERIODIC
 POISSON| Periodicity                                                        XYZ

 RS_GRID| Information for grid number                                          1
 RS_GRID|   Bounds   1            -54      53                Points:         108
 RS_GRID|   Bounds   2            -54      53                Points:         108
 RS_GRID|   Bounds   3           -150     149                Points:         300
 RS_GRID| Real space distribution over                                  8 groups
 RS_GRID| Real space distribution along direction                              2
 RS_GRID| Border size                                                         28
 RS_GRID| Real space distribution over                                 16 groups
 RS_GRID| Real space distribution along direction                              3
 RS_GRID| Border size                                                         28
 RS_GRID|   Distribution                         Average         Max         Min
 RS_GRID|   Planes                                  69.5          70          69
 RS_GRID|   Distribution                         Average         Max         Min
 RS_GRID|   Planes                                  74.8          75          74

 RS_GRID| Information for grid number                                          2
 RS_GRID|   Bounds   1            -30      29                Points:          60
 RS_GRID|   Bounds   2            -30      29                Points:          60
 RS_GRID|   Bounds   3            -90      89                Points:         180
 RS_GRID| Real space fully replicated
 RS_GRID| Group size                                                           1

 RS_GRID| Information for grid number                                          3
 RS_GRID|   Bounds   1            -18      17                Points:          36
 RS_GRID|   Bounds   2            -18      17                Points:          36
 RS_GRID|   Bounds   3            -50      49                Points:         100
 RS_GRID| Real space fully replicated
 RS_GRID| Group size                                                           1

 RS_GRID| Information for grid number                                          4
 RS_GRID|   Bounds   1            -10       9                Points:          20
 RS_GRID|   Bounds   2            -10       9                Points:          20
 RS_GRID|   Bounds   3            -30      29                Points:          60
 RS_GRID| Real space fully replicated
 RS_GRID| Group size                                                           1

 RS_GRID| Information for grid number                                          5
 RS_GRID|   Bounds   1             -6       5                Points:          12
 RS_GRID|   Bounds   2             -6       5                Points:          12
 RS_GRID|   Bounds   3            -18      17                Points:          36
 RS_GRID| Real space fully replicated
 RS_GRID| Group size                                                           1

 Spin 1

 Number of electrons:                                                        296.000
 Number of occupied orbitals:                                                296
 Number of molecular orbitals:                                               832

 Spin 2

 Number of electrons:                                                        280.000
 Number of occupied orbitals:                                                280
 Number of molecular orbitals:                                               832

 Number of orbital functions:                                                832
 Number of independent orbital functions:                                    832

 Extrapolation method: initial_guess

 Atomic guess: The first density matrix is obtained in terms of atomic orbitals
               and electronic configurations assigned to each atomic kind

 Guess for atomic kind: Ni_i

 Electronic structure
    Total number of core electrons                                         10.00
    Total number of valence electrons                                      18.00
    Total number of electrons                                              28.00
    Multiplicity                                                         doublet
    Alpha Electrons
    S   [  1.00  1.00] 1.00  1.00
    P   [  3.00] 3.00
    D      4.35
    Beta Electrons
    S   [  1.00  1.00] 1.00  1.00
    P   [  3.00] 3.00
    D      3.65


 *******************************************************************************
                  Iteration          Convergence                     Energy [au]
 *******************************************************************************
                          1         1.51729                    -167.067424631347
                          2         15.3902                    -156.642654318634
                          3         2.33433                    -168.319355313541
                          4        0.206730                    -168.609905008081
                          5        0.814175E-01                -168.612873080494
                          6        0.173318E-01                -168.613470181066
                          7        0.290432E-02                -168.613543571401
                          8        0.311825E-02                -168.613543401474
                          9        0.179670E-03                -168.613544404477
                         10        0.169386E-02                -168.613544207811
                         11        0.473341E-03                -168.613544360253
                         12        0.165417E-03                -168.613544400419
                         13        0.162622E-03                -168.613544401489
                         14        0.158325E-03                -168.613544403900
                         15        0.177007E-03                -168.613544402509
                         16        0.138916E-03                -168.613544404900
                         17        0.934549E-04                -168.613544406149
                         18        0.119916E-03                -168.613544405789
                         19        0.131607E-03                -168.613544405591
                         20        0.169309E-03                -168.613544404773
                         21        0.551337E-04                -168.613544406656
                         22        0.382664E-04                -168.613544406759
                         23        0.378942E-04                -168.613544406765
                         24        0.381089E-04                -168.613544406765
                         25        0.390835E-04                -168.613544406759
                         26        0.308614E-04                -168.613544406841
                         27        0.205044E-04                -168.613544406892
                         28        0.200942E-04                -168.613544406893
                         29        0.199375E-04                -168.613544406893
                         30        0.200198E-04                -168.613544406894
                         31        0.161325E-04                -168.613544406903
                         32        0.330614E-05                -168.613544406925
                         33        0.238713E-05                -168.613544406926
                         34        0.265439E-05                -168.613544406926
                         35        0.277073E-05                -168.613544406926
                         36        0.335175E-05                -168.613544406926
                         37        0.148809E-05                -168.613544406927
                         38        0.133447E-05                -168.613544406927
                         39        0.918735E-06                -168.613544406927

 Energy components [Hartree]           Total Energy ::         -168.613544406927
                                        Band Energy ::          -26.569761966525
                                     Kinetic Energy ::           97.306723392622
                                   Potential Energy ::         -265.920267799548
                                      Virial (-V/T) ::            2.732804666812
                                        Core Energy ::         -299.567979157577
                                          XC Energy ::          -16.227189041387
                                     Coulomb Energy ::          147.181623792037
                       Total Pseudopotential Energy ::         -396.961043505191
                       Local Pseudopotential Energy ::         -362.648291121960
                    Nonlocal Pseudopotential Energy ::          -34.312752383230
                                        Confinement ::            0.863409549921

 Orbital energies  State     Spin  L     Occupation   Energy[a.u.]    Energy[eV]

                       1    alpha  0          1.000      -4.172666   -113.544030
                       2    alpha  0          1.000      -0.181431     -4.936983
                       1     beta  0          1.000      -4.140640   -112.672541
                       2     beta  0          1.000      -0.176372     -4.799339

                       1    alpha  1          3.000      -2.578739    -70.171064
                       1     beta  1          3.000      -2.547579    -69.323162

                       1    alpha  2          4.350      -0.327039     -8.899191
                       1     beta  2          3.650      -0.300569     -8.178887


 Total Electron Density at R=0:                                         0.030422

 Guess for atomic kind: Ni_b

 Electronic structure
    Total number of core electrons                                         10.00
    Total number of valence electrons                                      18.00
    Total number of electrons                                              28.00
    Multiplicity                                                         singlet
    Alpha Electrons
    S   [  1.00  1.00] 1.00  1.00
    P   [  3.00] 3.00
    D      4.15
    Beta Electrons
    S   [  1.00  1.00] 1.00  1.00
    P   [  3.00] 3.00
    D      3.85


 *******************************************************************************
                  Iteration          Convergence                     Energy [au]
 *******************************************************************************
                          1         1.51644                    -167.063405016002
                          2         14.5708                    -156.605601568142
                          3         2.17615                    -168.315940476529
                          4        0.171083                    -168.606607503240
                          5        0.597643E-01                -168.609374059588
                          6        0.830111E-02                -168.609749350056
                          7        0.863734E-02                -168.609756441038
                          8        0.471213E-02                -168.609760412320
                          9        0.113554E-02                -168.609762605964
                         10        0.216452E-02                -168.609762370126
                         11        0.860489E-03                -168.609762690774
                         12        0.108436E-03                -168.609762764649
                         13        0.504231E-04                -168.609762765416
                         14        0.680279E-04                -168.609762765438
                         15        0.993911E-04                -168.609762764047
                         16        0.113151E-03                -168.609762764838
                         17        0.175613E-04                -168.609762765748
                         18        0.133048E-04                -168.609762765759
                         19        0.108258E-04                -168.609762765773
                         20        0.154001E-04                -168.609762765766
                         21        0.161325E-04                -168.609762765775
                         22        0.521836E-05                -168.609762765800
                         23        0.286562E-05                -168.609762765801
                         24        0.222908E-05                -168.609762765802
                         25        0.118017E-05                -168.609762765802
                         26        0.205267E-06                -168.609762765802

 Energy components [Hartree]           Total Energy ::         -168.609762765802
                                        Band Energy ::          -26.567953610463
                                     Kinetic Energy ::           97.301617708638
                                   Potential Energy ::         -265.911380474440
                                      Virial (-V/T) ::            2.732856726706
                                        Core Energy ::         -299.564997397253
                                          XC Energy ::          -16.222862078970
                                     Coulomb Energy ::          147.178096710421
                       Total Pseudopotential Energy ::         -396.952955489255
                       Local Pseudopotential Energy ::         -362.642879785572
                    Nonlocal Pseudopotential Energy ::          -34.310075703683
                                        Confinement ::            0.863403833644

 Orbital energies  State     Spin  L     Occupation   Energy[a.u.]    Energy[eV]

                       1    alpha  0          1.000      -4.163923   -113.306098
                       2    alpha  0          1.000      -0.180022     -4.898638
                       1     beta  0          1.000      -4.150197   -112.932601
                       2     beta  0          1.000      -0.177854     -4.839663

                       1    alpha  1          3.000      -2.570231    -69.939555
                       1     beta  1          3.000      -2.556877    -69.576169

                       1    alpha  2          4.150      -0.319789     -8.701900
                       1     beta  2          3.850      -0.308444     -8.393176


 Total Electron Density at R=0:                                         0.030434

 Spin 1
 Re-scaling the density matrix to get the right number of electrons for spin 1
                  # Electrons              Trace(P)               Scaling factor
                        296.000             296.000                        1.000

 Spin 2
 Re-scaling the density matrix to get the right number of electrons for spin 2
                  # Electrons              Trace(P)               Scaling factor
                        280.000             280.000                        1.000


 SCF WAVEFUNCTION OPTIMIZATION

  Step     Update method      Time    Convergence         Total energy    Change
  ------------------------------------------------------------------------------
     1 NoMix/Diag. 0.80E-01    1.7     0.87322479     -5426.4198604606 -5.43E+03
     2 Broy./Diag. 0.80E-01    1.5     0.01649815     -5315.6811109169  1.11E+02
     3 Broy./Diag. 0.80E-01    1.5     0.04667660     -5350.6460924811 -3.50E+01
     4 Broy./Diag. 0.80E-01    1.5     0.00776258     -5410.1283250240 -5.95E+01
     5 Broy./Diag. 0.80E-01    1.5     0.01212859     -5415.9893311187 -5.86E+00
[...]
   139 Broy./Diag. 0.80E-01    1.5     0.01941000     -5416.0540221603  1.09E+00
   140 Broy./Diag. 0.80E-01    1.5     0.04530298     -5416.1965916123 -1.43E-01
   141 Broy./Diag. 0.80E-01    1.5     0.02960373     -5416.5108941424 -3.14E-01
   142 Broy./Diag. 0.80E-01    1.5     0.03687425     -5416.3547163441  1.56E-01
   143 Broy./Diag. 0.80E-01    1.5     0.06799489     -5416.6928767989 -3.38E-01
   144 Broy./Diag. 0.80E-01    1.5     0.03119718     -5418.0438839985 -1.35E+00
   145 Broy./Diag. 0.80E-01    1.5     0.01318586     -5418.2914278330 -2.48E-01
   146 Broy./Diag. 0.80E-01    1.5     0.01626899     -5418.2039292515  8.75E-02
   147 Broy./Diag. 0.80E-01    1.5     0.02058356     -5417.9511572084  2.53E-01
   148 Broy./Diag. 0.80E-01    1.5     0.01161246     -5418.2025572830 -2.51E-01
   149 Broy./Diag. 0.80E-01    1.5     0.01254206     -5418.2797383291 -7.72E-02
   150 Broy./Diag. 0.80E-01    1.5     0.02307063     -5417.9576144520  3.22E-01
   151 Broy./Diag. 0.80E-01    1.5     0.00477336     -5418.6175944795 -6.60E-01
   152 Broy./Diag. 0.80E-01    1.5     0.00550270     -5418.9330947876 -3.16E-01
   153 Broy./Diag. 0.80E-01    1.5     0.01413559     -5418.8808242305  5.23E-02
   154 Broy./Diag. 0.80E-01    1.5     0.02158100     -5419.0267871476 -1.46E-01
   155 Broy./Diag. 0.80E-01    1.5     0.02196152     -5418.7430137290  2.84E-01
   156 Broy./Diag. 0.80E-01    1.5     0.03497219     -5418.6989020169  4.41E-02
   157 Broy./Diag. 0.80E-01    1.5     0.02455443     -5418.3803882199  3.19E-01
   158 Broy./Diag. 0.80E-01    1.5     0.00745650     -5418.6612065905 -2.81E-01
   159 Broy./Diag. 0.80E-01    1.5     0.05110626     -5418.3629504223  2.98E-01
   160 Broy./Diag. 0.80E-01    1.5     0.04586850     -5417.2519638967  1.11E+00
   161 Broy./Diag. 0.80E-01    1.5     0.02014915     -5418.5402998304 -1.29E+00
   162 Broy./Diag. 0.80E-01    1.5     0.07098437     -5418.5001743721  4.01E-02
   163 Broy./Diag. 0.80E-01    1.5     0.07129022     -5418.7403534227 -2.40E-01
   164 Broy./Diag. 0.80E-01    1.5     0.03587492     -5417.5259897230  1.21E+00
   165 Broy./Diag. 0.80E-01    1.5     0.03181317     -5418.0683436267 -5.42E-01
   166 Broy./Diag. 0.80E-01    1.5     0.03419265     -5417.9700721299  9.83E-02
   167 Broy./Diag. 0.80E-01    1.5     0.04014924     -5417.8716869710  9.84E-02
   168 Broy./Diag. 0.80E-01    1.5     0.01435212     -5417.3147008356  5.57E-01
   169 Broy./Diag. 0.80E-01    1.5     0.03384603     -5416.9183687267  3.96E-01
   170 Broy./Diag. 0.80E-01    1.5     0.05028725     -5416.8896604679  2.87E-02
   171 Broy./Diag. 0.80E-01    1.5     0.01261535     -5416.7947447190  9.49E-02
   172 Broy./Diag. 0.80E-01    1.5     0.01790598     -5417.0935958282 -2.99E-01
   173 Broy./Diag. 0.80E-01    1.5     0.05357904     -5417.1715608801 -7.80E-02
   174 Broy./Diag. 0.80E-01    1.5     0.02377509     -5416.3774812799  7.94E-01
   175 Broy./Diag. 0.80E-01    1.5     0.00748027     -5416.5880584887 -2.11E-01
   176 Broy./Diag. 0.80E-01    1.5     0.02494327     -5416.6830583463 -9.50E-02
   177 Broy./Diag. 0.80E-01    1.5     0.03390310     -5417.2063296253 -5.23E-01
   178 Broy./Diag. 0.80E-01    1.5     0.05891167     -5416.8534380824  3.53E-01
   179 Broy./Diag. 0.80E-01    1.5     0.02114506     -5418.7684727789 -1.92E+00
   180 Broy./Diag. 0.80E-01    1.5     0.06067341     -5417.0682225264  1.70E+00
   181 Broy./Diag. 0.80E-01    1.5     0.02748383     -5416.8360852071  2.32E-01
   182 Broy./Diag. 0.80E-01    1.5     0.07303750     -5418.2695394892 -1.43E+00
   183 Broy./Diag. 0.80E-01    1.5     0.12472955     -5421.9296279865 -3.66E+00
   184 Broy./Diag. 0.80E-01    1.5     0.04167557     -5417.2072548535  4.72E+00
   185 Broy./Diag. 0.80E-01    1.5     0.05024083     -5418.0688217653 -8.62E-01
   186 Broy./Diag. 0.80E-01    1.5     0.03471617     -5416.7397709127  1.33E+00
   187 Broy./Diag. 0.80E-01    1.5     0.02856218     -5416.8141069570 -7.43E-02
   188 Broy./Diag. 0.80E-01    1.5     0.05622295     -5417.1001055578 -2.86E-01
   189 Broy./Diag. 0.80E-01    1.5     0.02777910     -5418.4554503448 -1.36E+00
   190 Broy./Diag. 0.80E-01    1.5     0.04128929     -5418.7791061760 -3.24E-01
   191 Broy./Diag. 0.80E-01    1.5     0.00918384     -5419.0030578784 -2.24E-01
   192 Broy./Diag. 0.80E-01    1.5     0.02142084     -5419.9491448716 -9.46E-01
   193 Broy./Diag. 0.80E-01    1.5     0.02013526     -5419.2097693075  7.39E-01
   194 Broy./Diag. 0.80E-01    1.5     0.02180251     -5418.5654049661  6.44E-01
   195 Broy./Diag. 0.80E-01    1.5     0.01050204     -5418.5898900519 -2.45E-02
   196 Broy./Diag. 0.80E-01    1.5     0.06065676     -5418.2381790523  3.52E-01
   197 Broy./Diag. 0.80E-01    1.5     0.04418173     -5417.0203845413  1.22E+00
   198 Broy./Diag. 0.80E-01    1.5     0.04889295     -5416.3685834793  6.52E-01
   199 Broy./Diag. 0.80E-01    1.5     0.02592621     -5417.5879197676 -1.22E+00
   200 Broy./Diag. 0.80E-01    1.5     0.02225943     -5416.8553341004  7.33E-01
   201 Broy./Diag. 0.80E-01    1.5     0.02478114     -5418.4930760599 -1.64E+00
   202 Broy./Diag. 0.80E-01    1.5     0.02848429     -5418.6638084388 -1.71E-01
   203 Broy./Diag. 0.80E-01    1.5     0.03802187     -5418.8842462908 -2.20E-01
   204 Broy./Diag. 0.80E-01    1.5     0.02702318     -5418.7860460885  9.82E-02
   205 Broy./Diag. 0.80E-01    1.5     0.05669898     -5419.0107622915 -2.25E-01
   206 Broy./Diag. 0.80E-01    1.5     0.05462264     -5420.6795068064 -1.67E+00
   207 Broy./Diag. 0.80E-01    1.5     0.02269147     -5418.0606555587  2.62E+00
   208 Broy./Diag. 0.80E-01    1.5     0.02253912     -5415.7596400291  2.30E+00
   209 Broy./Diag. 0.80E-01    1.5     0.06568534     -5414.9663115320  7.93E-01
   210 Broy./Diag. 0.80E-01    1.5     0.01213468     -5417.8277661798 -2.86E+00
   211 Broy./Diag. 0.80E-01    1.5     0.08571883     -5418.6038049235 -7.76E-01
   212 Broy./Diag. 0.80E-01    1.5     0.09223785     -5418.7272726858 -1.23E-01
   213 Broy./Diag. 0.80E-01    1.5     0.05388520     -5418.5981307549  1.29E-01
   214 Broy./Diag. 0.80E-01    1.5     0.03992534     -5418.3604205202  2.38E-01
   215 Broy./Diag. 0.80E-01    1.5     0.03412997     -5417.2747974077  1.09E+00
   216 Broy./Diag. 0.80E-01    1.5     0.11710126     -5416.5706183680  7.04E-01
   217 Broy./Diag. 0.80E-01    1.5     0.15394612     -5415.4849658735  1.09E+00
   218 Broy./Diag. 0.80E-01    1.5     0.07702456     -5414.8281226839  6.57E-01
   219 Broy./Diag. 0.80E-01    1.5     0.16048108     -5416.1397162467 -1.31E+00
   220 Broy./Diag. 0.80E-01    1.5     0.06087054     -5415.3721736871  7.68E-01
   221 Broy./Diag. 0.80E-01    1.5     0.04647995     -5416.5536911476 -1.18E+00
   222 Broy./Diag. 0.80E-01    1.5     0.18264671     -5417.0912114237 -5.38E-01
   223 Broy./Diag. 0.80E-01    1.5     0.02951556     -5417.1951129876 -1.04E-01
   224 Broy./Diag. 0.80E-01    1.5     0.07829119     -5416.4877962385  7.07E-01
   225 Broy./Diag. 0.80E-01    1.5     0.28457946     -5416.6334391264 -1.46E-01
   226 Broy./Diag. 0.80E-01    1.5     0.08373276     -5418.4639298223 -1.83E+00
   227 Broy./Diag. 0.80E-01    1.5     0.07132437     -5417.5833052948  8.81E-01
   228 Broy./Diag. 0.80E-01    1.5     0.13162081     -5417.3175111397  2.66E-01
   229 Broy./Diag. 0.80E-01    1.5     0.07393671     -5418.8761911494 -1.56E+00
   230 Broy./Diag. 0.80E-01    1.5     0.11300330     -5419.1902868178 -3.14E-01
   231 Broy./Diag. 0.80E-01    1.5     0.07351494     -5417.4427046034  1.75E+00
   232 Broy./Diag. 0.80E-01    1.5     0.03130856     -5416.7846691233  6.58E-01
   233 Broy./Diag. 0.80E-01    1.5     0.07661968     -5414.2547108875  2.53E+00
   234 Broy./Diag. 0.80E-01    1.5     0.10634391     -5417.2901942070 -3.04E+00
   235 Broy./Diag. 0.80E-01    1.5     0.13695943     -5413.2339146814  4.06E+00
   236 Broy./Diag. 0.80E-01    1.5     0.36213364     -5414.8652627717 -1.63E+00
   237 Broy./Diag. 0.80E-01    1.5     0.18285600     -5402.4425964495  1.24E+01
   238 Broy./Diag. 0.80E-01    1.5     0.18245425     -5412.5185413775 -1.01E+01
   239 Broy./Diag. 0.80E-01    1.5     0.12114821     -5416.7954380282 -4.28E+00
   240 Broy./Diag. 0.80E-01    1.5     0.05056659     -5415.8736126275  9.22E-01
   241 Broy./Diag. 0.80E-01    1.5     0.06750599     -5415.1548155069  7.19E-01
   242 Broy./Diag. 0.80E-01    1.5     0.08903904     -5416.9506949434 -1.80E+00
   243 Broy./Diag. 0.80E-01    1.5     0.07762021     -5419.9796476046 -3.03E+00
   244 Broy./Diag. 0.80E-01    1.5     0.03689724     -5420.5815978720 -6.02E-01
   245 Broy./Diag. 0.80E-01    1.5     0.07626819     -5421.8880714600 -1.31E+00
   246 Broy./Diag. 0.80E-01    1.5     0.02423253     -5421.0796314109  8.08E-01
   247 Broy./Diag. 0.80E-01    1.5     0.00790688     -5421.6905425909 -6.11E-01
   248 Broy./Diag. 0.80E-01    1.5     0.01737980     -5421.4081964877  2.82E-01
   249 Broy./Diag. 0.80E-01    1.5     0.04589625     -5421.1066328413  3.02E-01
   250 Broy./Diag. 0.80E-01    1.5     0.03801489     -5419.2683940830  1.84E+00
   251 Broy./Diag. 0.80E-01    1.5     0.03745500     -5419.1572335047  1.11E-01
   252 Broy./Diag. 0.80E-01    1.5     0.11272431     -5419.1223724660  3.49E-02
   253 Broy./Diag. 0.80E-01    1.5     0.17639824     -5417.7372742407  1.39E+00
   254 Broy./Diag. 0.80E-01    1.5     0.04113180     -5422.0947347233 -4.36E+00
   255 Broy./Diag. 0.80E-01    1.5     0.07929823     -5421.1247979863  9.70E-01
   256 Broy./Diag. 0.80E-01    1.5     0.04760139     -5420.1644416706  9.60E-01
   257 Broy./Diag. 0.80E-01    1.5     0.18118473     -5420.6897459781 -5.25E-01
   258 Broy./Diag. 0.80E-01    1.5     0.02572797     -5421.5791614301 -8.89E-01
   259 Broy./Diag. 0.80E-01    1.5     0.01768921     -5421.7971244004 -2.18E-01
   260 Broy./Diag. 0.80E-01    1.5     0.01455332     -5421.7479990070  4.91E-02
   261 Broy./Diag. 0.80E-01    1.5     0.14472235     -5420.6544232241  1.09E+00
   262 Broy./Diag. 0.80E-01    1.5     0.10774808     -5419.3239394476  1.33E+00
   263 Broy./Diag. 0.80E-01    1.5     0.09116786     -5418.5336976690  7.90E-01
   264 Broy./Diag. 0.80E-01    1.5     0.09014155     -5419.2571394946 -7.23E-01
   265 Broy./Diag. 0.80E-01    1.5     0.30907177     -5416.6943536492  2.56E+00
   266 Broy./Diag. 0.80E-01    1.5     0.04076228     -5416.9014386794 -2.07E-01
   267 Broy./Diag. 0.80E-01    1.5     0.07930041     -5417.1371980073 -2.36E-01
   268 Broy./Diag. 0.80E-01    1.5     0.08992204     -5418.2621128032 -1.12E+00
   269 Broy./Diag. 0.80E-01    1.5     0.24116918     -5418.3034415011 -4.13E-02
   270 Broy./Diag. 0.80E-01    1.5     0.08281717     -5420.0964009500 -1.79E+00
   271 Broy./Diag. 0.80E-01    1.5     0.20857590     -5418.5554250051  1.54E+00
   272 Broy./Diag. 0.80E-01    1.5     0.06566525     -5419.6737561327 -1.12E+00
   273 Broy./Diag. 0.80E-01    1.5     0.24144070     -5419.7230389758 -4.93E-02
   274 Broy./Diag. 0.80E-01    1.5     0.15299487     -5421.0565530693 -1.33E+00
   275 Broy./Diag. 0.80E-01    1.5     0.10818260     -5418.0221362906  3.03E+00
   276 Broy./Diag. 0.80E-01    1.5     0.09115534     -5417.8402583386  1.82E-01
   277 Broy./Diag. 0.80E-01    1.5     0.20119224     -5417.6950026156  1.45E-01
   278 Broy./Diag. 0.80E-01    1.5     0.08205567     -5417.8793411309 -1.84E-01
   279 Broy./Diag. 0.80E-01    1.5     0.04366666     -5419.0014445374 -1.12E+00
   280 Broy./Diag. 0.80E-01    1.5     0.05006559     -5418.8692472213  1.32E-01
   281 Broy./Diag. 0.80E-01    1.6     0.03828569     -5419.6455154318 -7.76E-01
   282 Broy./Diag. 0.80E-01    1.5     0.04172718     -5419.4572465450  1.88E-01
   283 Broy./Diag. 0.80E-01    1.5     0.07024386     -5419.0476771200  4.10E-01
   284 Broy./Diag. 0.80E-01    1.5     0.13014219     -5418.2030346039  8.45E-01
   285 Broy./Diag. 0.80E-01    1.5     0.10524301     -5416.8493417823  1.35E+00
   286 Broy./Diag. 0.80E-01    1.5     0.10394743     -5415.5973992023  1.25E+00
   287 Broy./Diag. 0.80E-01    1.5     0.03560390     -5416.9644019069 -1.37E+00
   288 Broy./Diag. 0.80E-01    1.5     0.16452571     -5416.8743589726  9.00E-02
   289 Broy./Diag. 0.80E-01    1.5     0.29155654     -5415.8626440437  1.01E+00
   290 Broy./Diag. 0.80E-01    1.5     0.32920789     -5417.0713420767 -1.21E+00
   291 Broy./Diag. 0.80E-01    1.5     0.10260081     -5411.4106884967  5.66E+00
   292 Broy./Diag. 0.80E-01    1.5     0.05794901     -5415.1087123769 -3.70E+00
   293 Broy./Diag. 0.80E-01    1.5     0.05992454     -5417.0096592826 -1.90E+00
   294 Broy./Diag. 0.80E-01    1.5     0.23907332     -5416.9510312583  5.86E-02
   295 Broy./Diag. 0.80E-01    1.5     0.58864760     -5415.4631923975  1.49E+00
   296 Broy./Diag. 0.80E-01    1.5     0.04076169     -5422.7629785535 -7.30E+00
   297 Broy./Diag. 0.80E-01    1.5     0.07854308     -5422.0787758678  6.84E-01
   298 Broy./Diag. 0.80E-01    1.5     0.37842452     -5419.0827951291  3.00E+00
   299 Broy./Diag. 0.80E-01    1.5     0.36407508     -5417.1765982115  1.91E+00
   300 Broy./Diag. 0.80E-01    1.5     0.05413340     -5415.3695793959  1.81E+00
   301 Broy./Diag. 0.80E-01    1.5     0.11227412     -5416.7161065662 -1.35E+00
   302 Broy./Diag. 0.80E-01    1.5     0.04668496     -5417.9338072082 -1.22E+00
   303 Broy./Diag. 0.80E-01    1.5     0.26353339     -5416.0018041902  1.93E+00
   304 Broy./Diag. 0.80E-01    1.5     0.19244601     -5417.1945903432 -1.19E+00
   305 Broy./Diag. 0.80E-01    1.5     0.30685091     -5414.7643846620  2.43E+00
   306 Broy./Diag. 0.80E-01    1.5     0.22902998     -5416.3392680719 -1.57E+00
   307 Broy./Diag. 0.80E-01    1.5     0.03824229     -5417.6292232581 -1.29E+00
   308 Broy./Diag. 0.80E-01    1.5     0.34637662     -5418.0493137312 -4.20E-01
   309 Broy./Diag. 0.80E-01    1.5     0.14489787     -5414.6197591782  3.43E+00
   310 Broy./Diag. 0.80E-01    1.5     0.16745487     -5407.2387102601  7.38E+00
   311 Broy./Diag. 0.80E-01    1.5     0.17448705     -5412.4185088109 -5.18E+00
   312 Broy./Diag. 0.80E-01    1.5     0.06280963     -5409.2013599916  3.22E+00
   313 Broy./Diag. 0.80E-01    1.5     0.17245098     -5411.7748075209 -2.57E+00
   314 Broy./Diag. 0.80E-01    1.5     0.02741623     -5408.2742106438  3.50E+00
   315 Broy./Diag. 0.80E-01    1.5     0.13670899     -5407.5738951286  7.00E-01
   316 Broy./Diag. 0.80E-01    1.5     0.05109220     -5415.6950745469 -8.12E+00
   317 Broy./Diag. 0.80E-01    1.5     0.08466346     -5417.3762661355 -1.68E+00
   318 Broy./Diag. 0.80E-01    1.5     0.03377715     -5416.9958982986  3.80E-01
   319 Broy./Diag. 0.80E-01    1.5     0.05866916     -5416.9649205238  3.10E-02
   320 Broy./Diag. 0.80E-01    1.5     0.04442154     -5416.4112765579  5.54E-01
   321 Broy./Diag. 0.80E-01    1.5     0.13627063     -5415.3366261268  1.07E+00
   322 Broy./Diag. 0.80E-01    1.5     0.15136411     -5416.1048003740 -7.68E-01
   323 Broy./Diag. 0.80E-01    1.5     0.05108969     -5414.6503796341  1.45E+00
   324 Broy./Diag. 0.80E-01    1.5     0.06214994     -5414.1786709468  4.72E-01
   325 Broy./Diag. 0.80E-01    1.5     0.05812517     -5415.4134120013 -1.23E+00
   326 Broy./Diag. 0.80E-01    1.5     0.09691664     -5415.0263234439  3.87E-01
   327 Broy./Diag. 0.80E-01    1.5     0.26946691     -5416.2348279212 -1.21E+00
   328 Broy./Diag. 0.80E-01    1.5     0.17210572     -5415.3862182822  8.49E-01
   329 Broy./Diag. 0.80E-01    1.5     0.13455942     -5413.8107009983  1.58E+00
   330 Broy./Diag. 0.80E-01    1.5     0.03704971     -5413.9082920223 -9.76E-02
   331 Broy./Diag. 0.80E-01    1.5     0.09658335     -5413.8074191541  1.01E-01
   332 Broy./Diag. 0.80E-01    1.5     0.06916271     -5414.7614717670 -9.54E-01
   333 Broy./Diag. 0.80E-01    1.5     0.03499735     -5416.9822569445 -2.22E+00
   334 Broy./Diag. 0.80E-01    1.5     0.05087801     -5416.8165826338  1.66E-01
   335 Broy./Diag. 0.80E-01    1.5     0.08946820     -5417.0052962617 -1.89E-01
   336 Broy./Diag. 0.80E-01    1.5     0.13479806     -5417.0176629237 -1.24E-02
   337 Broy./Diag. 0.80E-01    1.5     0.12210998     -5416.7216333820  2.96E-01
   338 Broy./Diag. 0.80E-01    1.5     0.14347716     -5416.1388345945  5.83E-01
   339 Broy./Diag. 0.80E-01    1.5     0.05778941     -5416.1074017657  3.14E-02
   340 Broy./Diag. 0.80E-01    1.5     0.02239278     -5415.1754311824  9.32E-01
   341 Broy./Diag. 0.80E-01    1.5     0.05937477     -5416.3698616686 -1.19E+00
   342 Broy./Diag. 0.80E-01    1.5     0.12348174     -5417.3557219974 -9.86E-01
   343 Broy./Diag. 0.80E-01    1.5     0.11558549     -5416.9322630028  4.23E-01
   344 Broy./Diag. 0.80E-01    1.5     0.04636465     -5417.7947829797 -8.63E-01
   345 Broy./Diag. 0.80E-01    1.5     0.03077648     -5417.9172109814 -1.22E-01
   346 Broy./Diag. 0.80E-01    1.5     0.15826181     -5417.6541566093  2.63E-01
   347 Broy./Diag. 0.80E-01    1.5     0.13107490     -5418.7103609130 -1.06E+00
   348 Broy./Diag. 0.80E-01    1.5     0.06462516     -5420.6544871580 -1.94E+00
   349 Broy./Diag. 0.80E-01    1.5     0.05443157     -5418.2716248880  2.38E+00
   350 Broy./Diag. 0.80E-01    1.5     0.16897887     -5417.4547397651  8.17E-01
   351 Broy./Diag. 0.80E-01    1.5     0.06082930     -5417.3284241345  1.26E-01
   352 Broy./Diag. 0.80E-01    1.5     0.07547173     -5417.3839383621 -5.55E-02
   353 Broy./Diag. 0.80E-01    1.5     0.05847977     -5417.1231064056  2.61E-01
   354 Broy./Diag. 0.80E-01    1.5     0.21684799     -5417.0564534513  6.67E-02
   355 Broy./Diag. 0.80E-01    1.5     0.05443138     -5417.7444691959 -6.88E-01
   356 Broy./Diag. 0.80E-01    1.5     0.10620635     -5418.9075332544 -1.16E+00
   357 Broy./Diag. 0.80E-01    1.5     0.11667504     -5416.9642730180  1.94E+00
   358 Broy./Diag. 0.80E-01    1.5     0.06233925     -5416.3362321364  6.28E-01
   359 Broy./Diag. 0.80E-01    1.5     0.08019488     -5416.0809539755  2.55E-01
   360 Broy./Diag. 0.80E-01    1.5     0.05044102     -5417.0151550309 -9.34E-01
   361 Broy./Diag. 0.80E-01    1.5     0.10550595     -5419.4177342471 -2.40E+00
   362 Broy./Diag. 0.80E-01    1.5     0.19104291     -5420.9796854138 -1.56E+00
   363 Broy./Diag. 0.80E-01    1.5     0.26524354     -5419.5400033021  1.44E+00
   364 Broy./Diag. 0.80E-01    1.5     0.08097998     -5417.1566959315  2.38E+00
   365 Broy./Diag. 0.80E-01    1.5     0.12847835     -5419.8595931868 -2.70E+00
   366 Broy./Diag. 0.80E-01    1.5     0.16724368     -5416.3913251869  3.47E+00
   367 Broy./Diag. 0.80E-01    1.5     0.37472866     -5417.8957592794 -1.50E+00
   368 Broy./Diag. 0.80E-01    1.5     0.04534196     -5416.5098703613  1.39E+00
   369 Broy./Diag. 0.80E-01    1.5     0.30313618     -5417.4838164527 -9.74E-01
   370 Broy./Diag. 0.80E-01    1.5     0.04595346     -5418.1415102304 -6.58E-01
   371 Broy./Diag. 0.80E-01    1.5     0.11600019     -5417.7816885966  3.60E-01
   372 Broy./Diag. 0.80E-01    1.5     0.24516556     -5416.9903536184  7.91E-01
   373 Broy./Diag. 0.80E-01    1.5     0.19595139     -5417.4703048493 -4.80E-01
   374 Broy./Diag. 0.80E-01    1.5     0.07265664     -5415.7652064220  1.71E+00
   375 Broy./Diag. 0.80E-01    1.5     0.13270331     -5417.9528873688 -2.19E+00
   376 Broy./Diag. 0.80E-01    1.5     0.11152190     -5420.0338216958 -2.08E+00
   377 Broy./Diag. 0.80E-01    1.5     0.22970567     -5416.3860330877  3.65E+00
   378 Broy./Diag. 0.80E-01    1.5     0.20081482     -5420.2354328874 -3.85E+00
   379 Broy./Diag. 0.80E-01    1.5     0.10183156     -5419.7832938984  4.52E-01
   380 Broy./Diag. 0.80E-01    1.5     0.09565302     -5418.9293199951  8.54E-01
   381 Broy./Diag. 0.80E-01    1.5     0.08171690     -5418.6482108090  2.81E-01
   382 Broy./Diag. 0.80E-01    1.5     0.06503354     -5417.7183595416  9.30E-01
   383 Broy./Diag. 0.80E-01    1.5     0.08330815     -5416.7569600680  9.61E-01
   384 Broy./Diag. 0.80E-01    1.5     0.30208505     -5416.3368034967  4.20E-01
