      60
 i =        1, E =     -7949.3286680204
 Pt        -0.0009140764        0.0001195592        0.0006837855
 Pt        -0.0002881110        0.0001563239       -0.0005026663
 Pt         0.0009518568        0.0002484165        0.0003619221
 Pt         0.0008715642       -0.0003924864        0.0002686299
 Pt        -0.0002617837       -0.0001336427       -0.0019579112
 Pt         0.0005419907       -0.0004897158       -0.0020179602
 Pt         0.0002649421        0.0002509139       -0.0034115335
 Pt         0.0011077914        0.0005387863       -0.0030205153
 Pt         0.0000955466        0.0011928466       -0.0015916432
 Pt        -0.0003018465        0.0004999223       -0.0016232707
 Pt        -0.0004542848       -0.0007982663       -0.0027721580
 Pt        -0.0010969121       -0.0000728452       -0.0028474356
 Ni         0.0001518651       -0.0010493654        0.0000237094
 Ni        -0.0004848450       -0.0009134977        0.0002446620
 Ni         0.0002953497       -0.0017062770       -0.0000663258
 Ni        -0.0007225787       -0.0002417106        0.0016680881
 Pt         0.0013853216       -0.0010448912        0.0004779713
 Pt         0.0000728546        0.0013952250        0.0005377931
 Ni        -0.0016148034       -0.0013065005        0.0023744130
 Ni         0.0013237559        0.0017320945        0.0042062906
 Pt         0.0011133249       -0.0003657493        0.0003536369
 Pt        -0.0017380368        0.0000646518       -0.0001472825
 Pt        -0.0003633932        0.0017924789        0.0006374844
 Pt        -0.0018863786       -0.0009430323        0.0000035068
 Pt         0.0002112453       -0.0000011438        0.0001351778
 Pt         0.0003673685        0.0007969378        0.0001389439
 Ni        -0.0004173077        0.0022037117       -0.0012258126
 Pt         0.0000939242        0.0003903682        0.0001485281
 Pt         0.0006095546        0.0003698498       -0.0001605941
 Pt         0.0002607064        0.0002686316       -0.0003703588
 Ni         0.0030175629       -0.0007464037       -0.0006839298
 Pt         0.0002685284       -0.0002148687        0.0000475102
 Ni        -0.0008171973       -0.0022023243       -0.0009726226
 Pt        -0.0001414358       -0.0000300079        0.0002672904
 Pt         0.0004519222       -0.0000540895       -0.0005111243
 Pt         0.0002219857        0.0002951993        0.0005565282
 Pt         0.0019302207       -0.0013250814        0.0000439831
 Pt         0.0005040149        0.0018429451       -0.0005352921
 Pt         0.0018415958        0.0002035300        0.0001099644
 Pt        -0.0006866874       -0.0007481719       -0.0006138450
 Ni        -0.0016770737       -0.0013517315       -0.0024362391
 Pt         0.0000167591        0.0008583917       -0.0004254777
 Ni        -0.0010602616        0.0002505254       -0.0031930521
 Pt        -0.0008768697       -0.0005027728       -0.0006048541
 Ni        -0.0005191044        0.0002289628       -0.0018942363
 Ni        -0.0007383455        0.0008618996        0.0001497821
 Ni         0.0014962841        0.0004805464        0.0008969493
 Ni        -0.0008328207        0.0012323356        0.0008506708
 Pt         0.0009238643       -0.0000414335        0.0029422094
 Pt         0.0004198758       -0.0008123396        0.0029328203
 Pt         0.0002447483        0.0005001763        0.0016998325
 Pt         0.0000223185        0.0011225937        0.0013829971
 Pt        -0.0012435587        0.0003934755        0.0027722112
 Pt        -0.0003587288        0.0001565987        0.0035186538
 Pt        -0.0004813675       -0.0002958474        0.0021341685
 Pt         0.0002090793       -0.0002935064        0.0019018673
 Pt        -0.0007810328        0.0001894143       -0.0004034752
 Pt        -0.0006615119       -0.0006121072       -0.0007483690
 Pt         0.0003307111        0.0000469704        0.0006739405
 Pt         0.0007348180        0.0002501850       -0.0004831295
      60
 i =        2, E =     -7949.3300085558
 Pt         0.0005577885        0.0000382263       -0.0007454434
 Pt         0.0002987223       -0.0000137722       -0.0011717381
 Pt        -0.0001688838       -0.0002642335       -0.0009694014
 Pt        -0.0002001110        0.0003602197       -0.0009468179
 Pt         0.0004053174        0.0002940339       -0.0009869394
 Pt         0.0003008635        0.0002106555       -0.0004433778
 Pt         0.0006430631       -0.0000371186       -0.0008745217
 Pt         0.0003992382       -0.0000023266        0.0001370474
 Pt        -0.0002384074       -0.0000523028       -0.0004461984
 Pt        -0.0004233996        0.0003658664       -0.0004830440
 Pt        -0.0003650131        0.0002137921       -0.0001589848
 Pt        -0.0005428409       -0.0002074178       -0.0003314170
 Ni        -0.0001806062       -0.0000360629       -0.0004646523
 Ni        -0.0003536068       -0.0006716666       -0.0003997260
 Ni        -0.0012019060       -0.0002109214       -0.0002977003
 Ni        -0.0013294756        0.0002580063        0.0001159387
 Pt         0.0007762137       -0.0001509526        0.0004109807
 Pt         0.0001787739        0.0001057602        0.0000212358
 Ni         0.0002188735        0.0003138500        0.0002230279
 Ni         0.0017257763        0.0018092538        0.0000876653
 Pt         0.0005187799        0.0003379975        0.0004085356
 Pt        -0.0006261362        0.0001845452       -0.0003175561
 Pt         0.0000220889       -0.0002760511       -0.0001611490
 Pt        -0.0008488964        0.0001195712       -0.0002087384
 Pt         0.0001546764        0.0001231129        0.0000476868
 Pt         0.0001681440        0.0004673490       -0.0000915282
 Ni         0.0012593601       -0.0010376060       -0.0017306335
 Pt         0.0001441532        0.0001417895       -0.0000136961
 Pt        -0.0000634671       -0.0000808812        0.0001184189
 Pt         0.0001103375        0.0000691363        0.0001271296
 Ni        -0.0016667530       -0.0003851783       -0.0013971000
 Pt         0.0000541165       -0.0004202911       -0.0003761521
 Ni         0.0010182207        0.0010249775       -0.0015937530
 Pt         0.0001604990        0.0001611120        0.0000721751
 Pt        -0.0000013694        0.0002761726        0.0001959166
 Pt         0.0004153286        0.0004519439       -0.0002481352
 Pt         0.0012691795        0.0000627674        0.0005256880
 Pt         0.0003890014        0.0000558936        0.0003397461
 Pt         0.0012627514        0.0003047555       -0.0000469792
 Pt        -0.0004451849        0.0002758573        0.0000296877
 Ni        -0.0003567432        0.0006177574       -0.0000344386
 Pt         0.0000879939        0.0001411543       -0.0002345562
 Ni        -0.0003910075        0.0001631728        0.0001906664
 Pt        -0.0006093575       -0.0001339271       -0.0001248244
 Ni         0.0000707644       -0.0002966096       -0.0003020537
 Ni        -0.0011188962        0.0001149263        0.0002421173
 Ni         0.0001316190        0.0005003325        0.0000798843
 Ni        -0.0000140141       -0.0012433417        0.0002306387
 Pt         0.0004318114       -0.0002264065        0.0002624816
 Pt         0.0002443131        0.0002353958        0.0002578926
 Pt         0.0005633169        0.0004058743        0.0004621353
 Pt         0.0001795952       -0.0002153782        0.0004059637
 Pt        -0.0003328945        0.0000287504       -0.0000788521
 Pt        -0.0007641760       -0.0000811744        0.0005411801
 Pt        -0.0002217619        0.0002114695        0.0003963593
 Pt        -0.0004783507        0.0003732525        0.0008435513
 Pt         0.0002719050       -0.0002996416        0.0009610475
 Pt        -0.0000772985        0.0005051068        0.0008298976
 Pt        -0.0002723158        0.0000009645        0.0011078750
 Pt        -0.0005724442       -0.0001048217        0.0008300077
      60
 i =        3, E =     -7949.3302950973
 Pt         0.0002297984        0.0000205878       -0.0005448908
 Pt         0.0001084897       -0.0000261456       -0.0006596842
 Pt        -0.0001489559        0.0000959279       -0.0007607112
 Pt        -0.0001057527        0.0001523015       -0.0007202763
 Pt         0.0000678786        0.0001444895       -0.0003898438
 Pt        -0.0000743858        0.0002707417        0.0000093438
 Pt         0.0000508174        0.0000935788       -0.0001717693
 Pt        -0.0001815002       -0.0000362698        0.0003555374
 Pt         0.0001024680       -0.0000904635       -0.0000937584
 Pt         0.0001212682       -0.0000622687       -0.0002523206
 Pt         0.0001728823        0.0002691913        0.0002672160
 Pt         0.0002650182        0.0001204628        0.0001442607
 Ni         0.0000656423       -0.0001881031       -0.0001945479
 Ni        -0.0001798340       -0.0001315964       -0.0002562411
 Ni         0.0002477966       -0.0000463762       -0.0002239491
 Ni        -0.0004415281       -0.0002785079        0.0001592454
 Pt         0.0002645554        0.0001584662       -0.0002352444
 Pt         0.0000451860       -0.0003126243       -0.0000909402
 Ni         0.0000919117        0.0000574949       -0.0000122626
 Ni         0.0008257737       -0.0000169315       -0.0009566058
 Pt         0.0000365496        0.0003360950       -0.0003863741
 Pt        -0.0000635347        0.0003547092       -0.0003081536
 Pt        -0.0000410362       -0.0000747114       -0.0002807129
 Pt        -0.0001732937        0.0000592478       -0.0002433695
 Pt         0.0000394894       -0.0000061163       -0.0000477608
 Pt         0.0000792502        0.0002376743       -0.0002126822
 Ni         0.0000392418        0.0014040930       -0.0018311280
 Pt         0.0000549260       -0.0000129181        0.0000585501
 Pt        -0.0000150360        0.0000909984       -0.0000093206
 Pt         0.0001724804        0.0001253945        0.0000130808
 Ni         0.0010004675        0.0002440329       -0.0015294998
 Pt         0.0001162601       -0.0002058508       -0.0001635230
 Ni        -0.0001829111       -0.0012373087       -0.0018146003
 Pt        -0.0000421298        0.0001932233        0.0001068752
 Pt         0.0003245414        0.0001660254       -0.0001318219
 Pt        -0.0001098143        0.0001889444       -0.0003504554
 Pt         0.0003729054        0.0001146912        0.0004061940
 Pt         0.0002515096       -0.0002425124        0.0002959634
 Pt         0.0001095930        0.0003671716        0.0006078961
 Pt         0.0000073280        0.0001863795        0.0001971127
 Ni        -0.0005409458        0.0000557830        0.0005848274
 Pt         0.0000049883       -0.0002098129        0.0003025836
 Ni         0.0000655401        0.0001908320        0.0002455045
 Pt        -0.0000615237        0.0002540491        0.0002140647
 Ni        -0.0002593015        0.0003465933        0.0004739177
 Ni        -0.0008017884        0.0001592387        0.0000517832
 Ni        -0.0002254243       -0.0000605164       -0.0000674979
 Ni         0.0000750055       -0.0005859454       -0.0000388322
 Pt        -0.0002455799        0.0001094782       -0.0003235819
 Pt        -0.0001529582        0.0001604432       -0.0003338136
 Pt        -0.0002201991       -0.0000300512        0.0000476764
 Pt        -0.0000274727       -0.0000427948       -0.0000273572
 Pt         0.0001039860       -0.0000005829       -0.0005968255
 Pt        -0.0000278486        0.0000445209       -0.0000312189
 Pt        -0.0000442598        0.0001878287       -0.0000977727
 Pt        -0.0001577429        0.0001356196        0.0000082088
 Pt         0.0000423147        0.0000749549        0.0006132204
 Pt         0.0001922558        0.0001406315        0.0004726405
 Pt        -0.0002742642        0.0000313855        0.0004772541
 Pt        -0.0002695993        0.0000574503        0.0002905086
      60
 i =        4, E =     -7949.3304265412
 Pt        -0.0000962653        0.0001261472       -0.0003194053
 Pt         0.0000267409        0.0001591675       -0.0001781951
 Pt        -0.0000023952        0.0002151268       -0.0002114281
 Pt         0.0000448858       -0.0001360152       -0.0003078265
 Pt        -0.0001540954       -0.0001114349       -0.0001284829
 Pt        -0.0001396578       -0.0000222053        0.0000077528
 Pt        -0.0003317326        0.0001633902        0.0000665619
 Pt        -0.0003106849        0.0000948731        0.0001058712
 Pt         0.0002865391        0.0001871477        0.0000071690
 Pt         0.0003021777       -0.0000932935       -0.0000761861
 Pt         0.0004115996        0.0000352988        0.0001178649
 Pt         0.0004635533        0.0002334580        0.0000642172
 Ni         0.0001617190        0.0000883273       -0.0000500772
 Ni         0.0000965973        0.0004286824       -0.0001640060
 Ni         0.0004424330        0.0001495238       -0.0001153985
 Ni         0.0003932193       -0.0000993178        0.0000225267
 Pt        -0.0003227274        0.0002901150       -0.0001167049
 Pt        -0.0000571388        0.0000809955       -0.0002038135
 Ni        -0.0001135175       -0.0001401931        0.0000363124
 Ni        -0.0005584991       -0.0025421572        0.0003552176
 Pt        -0.0003885118       -0.0000836794       -0.0002415072
 Pt         0.0003390725       -0.0000245533       -0.0001238846
 Pt        -0.0000127768        0.0000849021       -0.0002643863
 Pt         0.0005348612        0.0001177064       -0.0002443938
 Pt        -0.0000817628        0.0000615733       -0.0001794215
 Pt         0.0000349069       -0.0002281405       -0.0001739349
 Ni         0.0006148924       -0.0000385447        0.0002734408
 Pt         0.0000635268       -0.0000377608       -0.0001047149
 Pt         0.0000723921        0.0000854161       -0.0002251601
 Pt         0.0000777000        0.0001242975       -0.0000635737
 Ni         0.0001904306        0.0004290245       -0.0001881166
 Pt         0.0000437595        0.0002206255       -0.0001418888
 Ni         0.0005990800        0.0002040641       -0.0003388472
 Pt        -0.0000148142        0.0001508453       -0.0001382122
 Pt         0.0001467577        0.0000219993       -0.0000969323
 Pt         0.0000064499       -0.0000941198       -0.0001260115
 Pt        -0.0004905596       -0.0001405531        0.0000536613
 Pt        -0.0000699715        0.0001308602        0.0000652766
 Pt        -0.0005181325        0.0001707025        0.0001409284
 Pt         0.0002300233       -0.0001080514       -0.0000030432
 Ni        -0.0004637094        0.0000737891        0.0001661170
 Pt         0.0000460739       -0.0000537717        0.0001177556
 Ni        -0.0001621792        0.0001456121        0.0002801897
 Pt         0.0002651563        0.0004080057        0.0000428917
 Ni        -0.0001151960        0.0000366542        0.0002402816
 Ni        -0.0002578157        0.0000376971       -0.0000423677
 Ni        -0.0002360246       -0.0002306733       -0.0001126797
 Ni         0.0000231131        0.0003742293       -0.0001717602
 Pt        -0.0004912111        0.0002882952       -0.0003903515
 Pt        -0.0003781884       -0.0000222443       -0.0003965682
 Pt        -0.0003606599       -0.0001305449       -0.0002948718
 Pt        -0.0003024449        0.0001697772       -0.0002336367
 Pt         0.0002433407        0.0000900837       -0.0003848340
 Pt         0.0002385100        0.0001600931       -0.0005323524
 Pt        -0.0000240364       -0.0000975127       -0.0002996054
 Pt         0.0001375312       -0.0000536436       -0.0003330510
 Pt        -0.0000402050        0.0002576748       -0.0000892272
 Pt         0.0000015212       -0.0001486977        0.0000203289
 Pt        -0.0001702781        0.0001862882       -0.0002176958
 Pt         0.0000367043        0.0001465041       -0.0001177032
      60
 i =        5, E =     -7949.3304863000
 Pt        -0.0000173850        0.0000611705       -0.0000722910
 Pt         0.0000498474        0.0000860767       -0.0000169562
 Pt         0.0000060323        0.0001211893        0.0000026414
 Pt         0.0000361970        0.0000180470       -0.0000163679
 Pt         0.0000569949       -0.0000062097       -0.0000775991
 Pt         0.0000040470        0.0000026816       -0.0000840546
 Pt        -0.0000268354        0.0000903006       -0.0000614416
 Pt        -0.0000349465        0.0001162697       -0.0002271260
 Pt         0.0000669967        0.0000711188       -0.0000223760
 Pt         0.0000788575        0.0000403351       -0.0000934777
 Pt         0.0001026653        0.0000080545       -0.0000488045
 Pt         0.0001027713        0.0000435831       -0.0000721202
 Ni         0.0000910469        0.0003862614        0.0000167648
 Ni         0.0001499926        0.0004403489       -0.0001067742
 Ni         0.0000897701        0.0001486495       -0.0000891281
 Ni         0.0002524555       -0.0000158562       -0.0000223871
 Pt        -0.0002012162        0.0000340811       -0.0002448420
 Pt         0.0000246265        0.0000986922       -0.0001806480
 Ni        -0.0000295387       -0.0000213574       -0.0000302988
 Ni         0.0008254946       -0.0002299852        0.0001230834
 Pt        -0.0001800674       -0.0000910547       -0.0002904313
 Pt         0.0002248925       -0.0000427963       -0.0000382984
 Pt        -0.0000172154        0.0000839369       -0.0001335959
 Pt         0.0003686680        0.0000383431       -0.0001342793
 Pt        -0.0000257943        0.0000332703       -0.0001076528
 Pt         0.0000798010       -0.0001046349       -0.0000529385
 Ni         0.0001512580        0.0001618653        0.0002116889
 Pt         0.0000195109       -0.0000183130       -0.0000598007
 Pt         0.0000570123        0.0001032025       -0.0001209017
 Pt         0.0000714986        0.0000858338       -0.0001464535
 Ni         0.0000260485        0.0003295444        0.0000945580
 Pt         0.0001048936        0.0001696647       -0.0001448548
 Ni         0.0002368671       -0.0002479307        0.0002101977
 Pt        -0.0000164711        0.0000492682       -0.0001256798
 Pt        -0.0000467006       -0.0000459039       -0.0000242196
 Pt         0.0000635918       -0.0000380868       -0.0000746500
 Pt        -0.0003468619        0.0000664988       -0.0003112525
 Pt        -0.0001000336        0.0001241236       -0.0001673622
 Pt        -0.0003217682        0.0000427556       -0.0002592362
 Pt         0.0001371821       -0.0000111897       -0.0000932582
 Ni        -0.0003456916        0.0002789695        0.0000004137
 Pt        -0.0000142466        0.0001309667       -0.0000762489
 Ni         0.0000066317        0.0001736551       -0.0000126519
 Pt         0.0001681385        0.0000928547       -0.0001041541
 Ni        -0.0000102501       -0.0000750690        0.0001046184
 Ni        -0.0001477849        0.0000257897       -0.0000745338
 Ni        -0.0000513744       -0.0001020465       -0.0000993577
 Ni         0.0000646412        0.0003270316       -0.0001192115
 Pt        -0.0001763587        0.0001186297       -0.0001497803
 Pt        -0.0001831460        0.0000489107       -0.0001525194
 Pt        -0.0001610314        0.0000153808       -0.0001877154
 Pt        -0.0001605363        0.0000967260       -0.0001489032
 Pt        -0.0000297012        0.0001075462       -0.0000369513
 Pt         0.0000549518        0.0001018809       -0.0001811765
 Pt        -0.0000808367        0.0000074424       -0.0001223810
 Pt        -0.0000144244        0.0000223902       -0.0001783928
 Pt        -0.0001400767        0.0001466352       -0.0002179507
 Pt        -0.0001010321       -0.0000070453       -0.0001319823
 Pt        -0.0000810160        0.0000786779       -0.0002807630
 Pt        -0.0000347289        0.0000883692       -0.0001773685
      60
 i =        6, E =     -7949.3305209917
 Pt         0.0000875134        0.0000702003        0.0000445896
 Pt         0.0000091149        0.0000334320       -0.0000145519
 Pt         0.0001031546        0.0000275633        0.0000112783
 Pt         0.0000822441        0.0001067637        0.0000753454
 Pt         0.0001135532        0.0000588578       -0.0000644981
 Pt         0.0000946782        0.0000712718       -0.0001413124
 Pt         0.0001737245        0.0000101325       -0.0000674223
 Pt         0.0001720429        0.0000412083       -0.0002625502
 Pt        -0.0000315681        0.0000050191       -0.0000574065
 Pt        -0.0000265452        0.0001009857       -0.0000831319
 Pt        -0.0000849798        0.0000764445       -0.0001233381
 Pt        -0.0001101925       -0.0000178567       -0.0001418904
 Ni         0.0000382225       -0.0000898330       -0.0000041678
 Ni         0.0000814678       -0.0002273780       -0.0000539190
 Ni        -0.0003274817        0.0000921573       -0.0000771936
 Ni         0.0000851684        0.0000313024       -0.0000657658
 Pt         0.0000155089        0.0000539810       -0.0001438374
 Pt         0.0000649129       -0.0000144062       -0.0000494922
 Ni         0.0000307514        0.0000022163       -0.0000611992
 Ni         0.0006561346       -0.0001335761       -0.0003286408
 Pt         0.0000566164       -0.0000216127       -0.0001446663
 Pt         0.0000483591        0.0000644493       -0.0000120584
 Pt         0.0000684202        0.0000908615       -0.0000377182
 Pt         0.0000986054       -0.0000304133        0.0000290586
 Pt         0.0001143134        0.0000470569       -0.0001157753
 Pt         0.0000336018        0.0000975460       -0.0001032317
 Ni        -0.0001420123        0.0000497510       -0.0000452165
 Pt         0.0000052872        0.0000637503       -0.0000639233
 Pt         0.0000480800        0.0000295396       -0.0000924315
 Pt         0.0000303649        0.0000203226       -0.0001160383
 Ni        -0.0000540174        0.0002540130        0.0002442478
 Pt         0.0000311748        0.0001146710       -0.0001479092
 Ni         0.0000434708       -0.0000920716        0.0002258630
 Pt         0.0000571233        0.0000520344       -0.0000954697
 Pt         0.0000100513       -0.0000133244       -0.0000958989
 Pt         0.0000749210        0.0000635278       -0.0000996524
 Pt        -0.0001031184        0.0001767439       -0.0003192059
 Pt        -0.0000784806        0.0000372674       -0.0002128246
 Pt        -0.0001030460       -0.0000338667       -0.0002664412
 Pt        -0.0000114355        0.0000865443       -0.0001853681
 Ni        -0.0003314391        0.0003156116       -0.0000212336
 Pt        -0.0000553322        0.0001476237       -0.0001628052
 Ni         0.0000803001        0.0001521285       -0.0001310900
 Pt         0.0000013671       -0.0000249534       -0.0001385168
 Ni        -0.0000051864       -0.0000268367       -0.0000913918
 Ni        -0.0000479129       -0.0000935034       -0.0000355615
 Ni         0.0000509471        0.0000350007       -0.0000219387
 Ni         0.0000422039       -0.0000227969       -0.0000110048
 Pt         0.0000231680        0.0000055597       -0.0000141627
 Pt         0.0000159219        0.0001042998       -0.0000399755
 Pt        -0.0000198778        0.0001493681       -0.0000991538
 Pt        -0.0000201612        0.0000549892       -0.0001040102
 Pt        -0.0002193552        0.0000630078        0.0000415763
 Pt        -0.0001725377        0.0000622449       -0.0000531809
 Pt        -0.0001167791        0.0000953350       -0.0000656821
 Pt        -0.0001502539        0.0000748934       -0.0000443292
 Pt        -0.0001340385        0.0000083176       -0.0002226249
 Pt        -0.0001397946        0.0001114667       -0.0001892958
 Pt        -0.0000279092        0.0000661444       -0.0001886329
 Pt        -0.0001030923        0.0000577304       -0.0001497970
      60
 i =        7, E =     -7949.3305477425
 Pt         0.0000467788        0.0000395472        0.0000778275
 Pt         0.0000343167       -0.0000333959        0.0000118740
 Pt         0.0001535911       -0.0000505020        0.0000077424
 Pt         0.0001436392        0.0000608287        0.0000958163
 Pt         0.0001173650        0.0000985496        0.0000035279
 Pt         0.0001249145        0.0000825734       -0.0001171590
 Pt         0.0001903591       -0.0000307943       -0.0000422066
 Pt         0.0002645437       -0.0000067071       -0.0001259039
 Pt        -0.0000217766        0.0000384169       -0.0000880154
 Pt        -0.0000246115        0.0000878617       -0.0000466895
 Pt        -0.0001194893        0.0000426132       -0.0001997313
 Pt        -0.0001211931       -0.0000182607       -0.0001661026
 Ni        -0.0000519853       -0.0000905698       -0.0000632228
 Ni         0.0000708268       -0.0001769373       -0.0001435409
 Ni        -0.0001818855       -0.0000020336       -0.0001301819
 Ni        -0.0001203060        0.0001690429       -0.0000371864
 Pt         0.0002327856       -0.0000226968        0.0000282406
 Pt         0.0001141049       -0.0000303729       -0.0000352163
 Ni         0.0000599627        0.0000267067       -0.0000409468
 Ni        -0.0008346568        0.0002854645       -0.0002186306
 Pt         0.0002474123        0.0000618475        0.0000763147
 Pt        -0.0001628944        0.0001388688       -0.0000586286
 Pt         0.0001670471       -0.0000169279        0.0000217580
 Pt        -0.0001887516       -0.0000333830        0.0000216985
 Pt         0.0001004356        0.0000957954       -0.0000368273
 Pt         0.0000047933        0.0001741848       -0.0001128301
 Ni        -0.0003702791       -0.0001938640       -0.0000415681
 Pt         0.0000124473        0.0000997774       -0.0001208843
 Pt         0.0000226127       -0.0000004524       -0.0000526372
 Pt         0.0000125376       -0.0000889672       -0.0000411485
 Ni        -0.0001942501        0.0003270737        0.0004275518
 Pt         0.0000264432       -0.0000852231       -0.0000565349
 Ni        -0.0004134806        0.0001462755        0.0002735187
 Pt         0.0000646711       -0.0000197450       -0.0000467325
 Pt        -0.0000297495        0.0000985751       -0.0001235402
 Pt         0.0000253171        0.0001015333       -0.0001267343
 Pt         0.0001792970        0.0001492384       -0.0001409343
 Pt        -0.0000127937        0.0000176553       -0.0001801304
 Pt         0.0001601420        0.0000195907       -0.0001765957
 Pt        -0.0001628746        0.0001399833       -0.0001920015
 Ni         0.0000229429        0.0001137330       -0.0000519763
 Pt        -0.0000657574        0.0000851050       -0.0001816574
 Ni         0.0000161661        0.0000041701       -0.0001294192
 Pt        -0.0002195364       -0.0000049469       -0.0001478544
 Ni        -0.0000294532        0.0000319929       -0.0001350249
 Ni         0.0001418149       -0.0003004127       -0.0000013615
 Ni         0.0000852532        0.0000666196        0.0000680981
 Ni         0.0000097616       -0.0002312450        0.0001015056
 Pt         0.0001138456       -0.0000263187        0.0000610057
 Pt         0.0000717635        0.0000831991        0.0000245545
 Pt         0.0000379794        0.0001824432       -0.0000352084
 Pt         0.0000132387        0.0000416558       -0.0000566971
 Pt        -0.0002517504        0.0000324890        0.0000545395
 Pt        -0.0002978756        0.0000444276       -0.0000138668
 Pt        -0.0001165464        0.0001406008       -0.0000529167
 Pt        -0.0001734428        0.0001313631        0.0000375849
 Pt        -0.0001407407       -0.0000317519       -0.0001935591
 Pt        -0.0001568456        0.0001697624       -0.0001954726
 Pt         0.0000060935        0.0000468712       -0.0000651472
 Pt        -0.0000916850        0.0000304315       -0.0001086944
      60
 i =        8, E =     -7949.3305648718
 Pt         0.0000580239        0.0000066692        0.0000060557
 Pt         0.0000452916       -0.0000007032       -0.0000469058
 Pt         0.0000886876       -0.0000338994       -0.0000446890
 Pt         0.0000899261        0.0000452167       -0.0000059747
 Pt         0.0000543619        0.0000820919       -0.0000386760
 Pt         0.0000939450        0.0000519678       -0.0000807676
 Pt         0.0001086198       -0.0000073923       -0.0000461755
 Pt         0.0001312054        0.0000003109       -0.0000231465
 Pt         0.0000259608        0.0000278704       -0.0000798351
 Pt         0.0000200608        0.0000675995       -0.0000353011
 Pt        -0.0000084138        0.0000270326       -0.0001465228
 Pt         0.0000047198        0.0000114450       -0.0001081462
 Ni        -0.0000734285       -0.0001247171       -0.0001010470
 Ni         0.0000007617       -0.0001871913       -0.0001732359
 Ni         0.0000452740       -0.0000404842       -0.0001462051
 Ni        -0.0000962128        0.0000485826       -0.0000472998
 Pt         0.0001897209       -0.0000162644        0.0000504529
 Pt         0.0000719495        0.0000700078       -0.0000507435
 Ni        -0.0000009401        0.0000034484       -0.0000125315
 Ni        -0.0002085043        0.0003758273        0.0000030867
 Pt         0.0001844364        0.0001141913        0.0000887401
 Pt        -0.0001549227        0.0000627032       -0.0000981027
 Pt         0.0000925185       -0.0000393610       -0.0000137493
 Pt        -0.0002131289        0.0000374358       -0.0000655551
 Pt         0.0000350400        0.0000647141       -0.0000190879
 Pt        -0.0000243512        0.0001116261       -0.0000810733
 Ni        -0.0000607716       -0.0001699117       -0.0001469862
 Pt         0.0000077928        0.0000777806       -0.0001079093
 Pt        -0.0000166535        0.0000236796       -0.0000321310
 Pt         0.0000111885       -0.0000287467       -0.0000219796
 Ni        -0.0000969901        0.0004052111       -0.0001253239
 Pt        -0.0000242679       -0.0000846987       -0.0000026161
 Ni        -0.0002093776        0.0002304285       -0.0001536176
 Pt         0.0000564144        0.0000244163       -0.0000451146
 Pt         0.0000014350        0.0000737556       -0.0000998041