      60
 i =        1, E =     -7949.3286679900
 Pt        -3.0944781290        5.4137640787        8.0969324149
 Pt         1.5940945817        5.4134749301        8.1152623898
 Pt        -0.7342250284        1.3530909121        8.1600835089
 Pt         3.9545420306        1.3541612184        8.1597928116
 Pt         1.5881115635        2.7056451236        8.1286586532
 Pt         6.2767940624        2.7065950617        8.1251735170
 Pt         6.2723307456       -0.0008534204        8.1443750817
 Pt         1.5830879818       -0.0014687127        8.1338701193
 Pt        -0.7283211981        6.7633017894        8.1754248624
 Pt         3.9639953371        6.7655406658        8.1809265312
 Pt        -0.7231493354        4.0635577917        8.1896568190
 Pt         3.9687224794        4.0607412086        8.1927775516
 Ni         0.0343991749        5.4329537255       10.3783852420
 Ni         4.7268973795        2.6947742241       10.3765412813
 Ni         0.0356123840        0.0223545608       10.3768621794
 Ni         4.7043443209        5.4219418173       10.3811265875
 Pt        -2.3231044876        4.0512391502       10.3788956956
 Pt        -2.3166461400        6.7763477969       10.3797600838
 Ni         0.0119522192        2.7098714261       10.3785224217
 Ni         4.6873613555        0.0084737242       10.3756075232
 Pt         2.3708516707        4.0794771726       10.3836689710
 Pt         2.3915849394        1.3377963174       10.3876259869
 Pt         2.3811231520        6.7473328814       10.3844610330
 Pt         7.0825164741        1.3758655258       10.3875933441
 Pt        -3.9056731384        6.7695568675       12.5314337860
 Pt        -1.5629097117        5.4077983063       12.5305048692
 Ni        -1.5564014233        2.6976701775       12.5288353291
 Pt         0.7835922953        4.0626426808       12.5296507826
 Pt         0.7825117379        1.3542445363       12.5331351093
 Pt         0.7798171392        6.7712112585       12.5322919064
 Ni         3.1114201356       -0.0045026873       12.5283599240
 Pt         3.1269573218        2.7153494125       12.5305128037
 Ni         3.1331709389        5.4255102396       12.5295723720
 Pt         5.4739736179        4.0588253390       12.5296777959
 Pt         5.4677565266        1.3524568154       12.5313256858
 Pt         7.8160005080       -0.0035244781       12.5291978451
 Pt        -0.8211916313        1.3766156388       14.6744106245
 Pt         3.8774312852        6.7465423257       14.6767981938
 Pt         3.8650470046        1.3353406814       14.6735569665
 Pt         3.8874670807        4.0783989671       14.6777252004
 Ni         6.2536571616        2.7003427392       14.6851059447
 Pt        -0.8062495245        6.7787788112       14.6791188959
 Ni         1.5710078834        0.0064263246       14.6888836208
 Pt        -0.7971330876        4.0502667981       14.6805640607
 Ni         1.5552247482        5.4215189514       14.6835320541
 Ni         6.2405361347        0.0216670475       14.6858421329
 Ni        -3.1575551493        5.4152331545       14.6831092493
 Ni         1.5410826621        2.7016571577       14.6841068753
 Pt         2.2962128475        4.0611085016       16.8716593167
 Pt        -2.3904736707        4.0634349215       16.8728228230
 Pt         2.3006007561        6.7658114241       16.8834117952
 Pt        -2.3860631051        6.7632777814       16.8869098516
 Pt         4.6815414342       -0.0010392956       16.9253574246
 Pt        -0.0078300202       -0.0003479012       16.9161326424
 Pt        -0.0122822801        2.7066586131       16.9337063252
 Pt         4.6762267272        2.7061335926       16.9312523629
 Pt         6.9982628416        1.3534156498       16.9054430800
 Pt         2.3092147681        1.3553697925       16.9067848746
 Pt         4.6699914415        5.4141188494       16.9447725891
 Pt        -0.0189570492        5.4138929066       16.9592375398
      60
 i =        2, E =     -7949.3300085062
 Pt        -3.1021841111        5.4143847810        8.1101288029
 Pt         1.5895807179        5.4149150047        8.1185109122
 Pt        -0.7271832849        1.3538810696        8.1695166497
 Pt         3.9610537829        1.3527352825        8.1686000684
 Pt         1.5869008781        2.7057877676        8.1172425094
 Pt         6.2787791340        2.7054391373        8.1106788473
 Pt         6.2747799566       -0.0001759075        8.1180020369
 Pt         1.5894397093        0.0000200857        8.1063841471
 Pt        -0.7275674809        6.7680734926        8.1681204729
 Pt         3.9631954847        6.7677914664        8.1712663804
 Pt        -0.7263705274        4.0612746585        8.1683821111
 Pt         3.9636731295        4.0603586662        8.1707836217
 Ni         0.0355526795        5.4298366467       10.3770620072
 Ni         4.7265272102        2.6957979472       10.3764714039
 Ni         0.0403496367        0.0147505908       10.3762446722
 Ni         4.7013862826        5.4183477572       10.3835217440
 Pt        -2.3163892190        4.0472306847       10.3754671293
 Pt        -2.3140514545        6.7835727572       10.3771262534
 Ni         0.0048487711        2.7068477863       10.3833793139
 Ni         4.6927693497        0.0159352153       10.3845542837
 Pt         2.3759715323        4.0766610223       10.3783519358
 Pt         2.3812629564        1.3385209261       10.3816752319
 Pt         2.3797354776        6.7563110160       10.3813090274
 Pt         7.0732365926        1.3698897084       10.3813953483
 Pt        -3.9044473479        6.7687894585       12.5319305574
 Pt        -1.5613098472        5.4115416508       12.5305036321
 Ni        -1.5569837243        2.7042889145       12.5247324791
 Pt         0.7841478493        4.0640192313       12.5294779497
 Pt         0.7863052167        1.3562628181       12.5324857076
 Pt         0.7831078096        6.7719685452       12.5319556096
 Ni         3.1220580300       -0.0070873517       12.5254280431
 Pt         3.1282149957        2.7125563113       12.5313745448
 Ni         3.1311296564        5.4191917063       12.5255786854
 Pt         5.4740623878        4.0595678659       12.5304789801
 Pt         5.4715574592        1.3533744380       12.5301803659
 Pt         7.8180456360       -0.0013050360       12.5315213995
 Pt        -0.8107649960        1.3718673870       14.6790440152
 Pt         3.8790471369        6.7533458233       14.6798971524
 Pt         3.8729012856        1.3360823332       14.6788392204
 Pt         3.8828708834        4.0767653912       14.6808075169
 Ni         6.2488550259        2.6975758258       14.6805296290
 Pt        -0.8058900631        6.7843150015       14.6829097117
 Ni         1.5695000654        0.0090288448       14.6798815847
 Pt        -0.8050172286        4.0461925265       14.6824623564
 Ni         1.5540815733        5.4227349339       14.6814398741
 Ni         6.2378014621        0.0259553459       14.6875971542
 Ni        -3.1512092109        5.4134209073       14.6883448154
 Ni         1.5379590731        2.7137008021       14.6883442202
 Pt         2.3011888036        4.0614951995       16.8946124438
 Pt        -2.3871605817        4.0601558006       16.8948108934
 Pt         2.3005680711        6.7681673798       16.8927878699
 Pt        -2.3865845448        6.7679080257       16.8948076215
 Pt         4.6749295759       -0.0000127416       16.9509230902
 Pt        -0.0104808319       -0.0000090599       16.9439429044
 Pt        -0.0146041090        2.7059871974       16.9493238770
 Pt         4.6766356875        2.7052521749       16.9433696937
 Pt         6.9920115967        1.3544223991       16.8961925226
 Pt         2.3031363298        1.3526612316       16.8945718844
 Pt         4.6742785307        5.4145290693       16.9424796979
 Pt        -0.0123644339        5.4148487327       16.9482907390
      60
 i =        3, E =     -7949.3302952035
 Pt        -3.1022161166        5.4145409144        8.1097413406
 Pt         1.5896870382        5.4149769799        8.1131270309
 Pt        -0.7257922251        1.3532691954        8.1666974440
 Pt         3.9621063865        1.3537704811        8.1652700623
 Pt         1.5877820338        2.7076385708        8.1100977030
 Pt         6.2802079191        2.7065751751        8.1056160289
 Pt         6.2776425246       -0.0003362148        8.1076441349
 Pt         1.5919126757        0.0002545035        8.1019260108
 Pt        -0.7273538701        6.7695579180        8.1650188197
 Pt         3.9619212451        6.7694087388        8.1665473152
 Pt        -0.7282300219        4.0613592201        8.1632280199
 Pt         3.9607951624        4.0598180136        8.1647327964
 Ni         0.0356541829        5.4306597003       10.3744543177
 Ni         4.7249903431        2.6948385060       10.3744231787
 Ni         0.0354191229        0.0129790028       10.3747102603
 Ni         4.6970108173        5.4182484768       10.3822829213
 Pt        -2.3128746430        4.0464080153       10.3762892446
 Pt        -2.3127672314        6.7853739270       10.3748676391
 Ni         0.0055272297        2.7077081829       10.3827326189
 Ni         4.7006583008        0.0248143539       10.3854214870
 Pt         2.3784027375        4.0769868238       10.3785801500
 Pt         2.3759881684        1.3392233076       10.3771257154
 Pt         2.3780186840        6.7572539251       10.3784301781
 Pt         7.0683600114        1.3695539160       10.3773052676
 Pt        -3.9037375615        6.7691774793       12.5315631293
 Pt        -1.5599833166        5.4132107870       12.5299762338
 Ni        -1.5512881682        2.7004880603       12.5178117740
 Pt         0.7861624711        4.0653377313       12.5298558766
 Pt         0.7869632462        1.3560784360       12.5321776007
 Pt         0.7840561725        6.7732626972       12.5319155950
 Ni         3.1169520785       -0.0086481006       12.5190189011
 Pt         3.1286156820        2.7104769867       12.5300769421
 Ni         3.1356170381        5.4232719747       12.5196733675
 Pt         5.4757039465        4.0599981473       12.5303273373
 Pt         5.4722614730        1.3549126517       12.5315076253
 Pt         7.8194410537        0.0011663305       12.5318491340
 Pt        -0.8050795533        1.3712343940       14.6829072544
 Pt         3.8801968846        6.7552793345       14.6822851743
 Pt         3.8789629563        1.3371731907       14.6791826697
 Pt         3.8795715056        4.0782978812       14.6807376924
 Ni         6.2481011765        2.7003244194       14.6799077474
 Pt        -0.8059125164        6.7864695273       14.6821825424
 Ni         1.5690612256        0.0100092401       14.6805943463
 Pt        -0.8092977932        4.0442940881       14.6814465005
 Ni         1.5542551524        5.4209349587       14.6802795589
 Ni         6.2345716949        0.0275551581       14.6894513436
 Ni        -3.1501319725        5.4155689687       14.6902178731
 Ni         1.5380972175        2.7107789186       14.6904912400
 Pt         2.3033008524        4.0611754651       16.9005678352
 Pt        -2.3860568072        4.0603550266       16.9008379190
 Pt         2.3020469285        6.7696662037       16.8965378036
 Pt        -2.3864348989        6.7682523353       16.8985566394
 Pt         4.6719784414        0.0003216085       16.9562578182
 Pt        -0.0136317816       -0.0003875071       16.9528710939
 Pt        -0.0158839018        2.7073744733       16.9547488129
 Pt         4.6751711348        2.7069497986       16.9506748746
 Pt         6.9911273950        1.3539838723       16.8988047359
 Pt         2.3012024504        1.3539644097       16.8964788419
 Pt         4.6744312128        5.4144543322       16.9479369638
 Pt        -0.0127382917        5.4146427618       16.9503148738
      60
 i =        4, E =     -7949.3304264006
 Pt        -3.1010796989        5.4149353532        8.1066084488
 Pt         1.5904080649        5.4151534214        8.1059851522
 Pt        -0.7258217641        1.3538221931        8.1608168793
 Pt         3.9620416198        1.3552653656        8.1589771946
 Pt         1.5884443846        2.7094656029        8.1037351429
 Pt         6.2805533218        2.7086677231        8.1026702104
 Pt         6.2797289800        0.0001463664        8.1000157126
 Pt         1.5924158591        0.0002510157        8.1012421542
 Pt        -0.7266976497        6.7699412589        8.1623917859
 Pt         3.9619305023        6.7698070423        8.1623778113
 Pt        -0.7280265667        4.0626577181        8.1613979673
 Pt         3.9608758643        4.0603580262        8.1616876425
 Ni         0.0365298394        5.4302267424       10.3726896833
 Ni         4.7232938798        2.6936358312       10.3724024421
 Ni         0.0339033335        0.0116139500       10.3728147816
 Ni         4.6932547251        5.4167182532       10.3817872161
 Pt        -2.3106846507        4.0473982069       10.3739580858
 Pt        -2.3117023959        6.7849001616       10.3725055326
 Ni         0.0067134737        2.7079784566       10.3813729042
 Ni         4.7091991015        0.0295135800       10.3800500807
 Pt         2.3788864991        4.0777950043       10.3748731473
 Pt         2.3730700232        1.3413741529       10.3720904936
 Pt         2.3771069714        6.7580549835       10.3746260370
 Pt         7.0654682474        1.3696754495       10.3728426978
 Pt        -3.9032159373        6.7697412978       12.5312004303
 Pt        -1.5587002999        5.4166274176       12.5287849609
 Ni        -1.5483239167        2.7058380834       12.5068083300
 Pt         0.7879031256        4.0659533662       12.5308869967
 Pt         0.7872241409        1.3561914138       12.5318077068
 Pt         0.7861914826        6.7743715423       12.5315983482
 Ni         3.1203801699       -0.0079051035       12.5084962913
 Pt         3.1295421726        2.7075839743       12.5286378301
 Ni         3.1366405249        5.4193398864       12.5092063550
 Pt         5.4765500817        4.0611195073       12.5307163304
 Pt         5.4751013439        1.3572303499       12.5313323449
 Pt         7.8197414881        0.0034739371       12.5310356731
 Pt        -0.8017652370        1.3720887715       14.6854114266
 Pt         3.8809710039        6.7550395849       14.6833318264
 Pt         3.8823178740        1.3392923922       14.6816351784
 Pt         3.8769745822        4.0804287944       14.6811027626
 Ni         6.2459062932        2.7017448317       14.6815304720
 Pt        -0.8068726412        6.7870580986       14.6823628802
 Ni         1.5704784362        0.0110978224       14.6808170607
 Pt        -0.8121490871        4.0439593647       14.6812499524
 Ni         1.5534584371        5.4218001393       14.6811294505
 Ni         6.2294988831        0.0296813460       14.6907608780
 Ni        -3.1504882111        5.4163975705       14.6911441954
 Ni         1.5386850952        2.7071480761       14.6917499552
 Pt         2.3029123784        4.0615659149       16.9022547643
 Pt        -2.3865196068        4.0613573146       16.9027604292
 Pt         2.3016579902        6.7705699526       16.8992651441
 Pt        -2.3868385444        6.7684707796       16.9008197906
 Pt         4.6707310768        0.0005228227       16.9565526746
 Pt        -0.0153004373       -0.0003471940       16.9588390647
 Pt        -0.0167398038        2.7092113144       16.9576601047
 Pt         4.6735078783        2.7088932350       16.9556149974
 Pt         6.9908633834        1.3542503260       16.9039979548
 Pt         2.3009517411        1.3552466900       16.9007444227
 Pt         4.6729495525        5.4146906934       16.9541976160
 Pt        -0.0145542913        5.4148533521       16.9534983077
      60
 i =        5, E =     -7949.3304862377
 Pt        -3.1002053614        5.4155149870        8.1037611373
 Pt         1.5912327800        5.4157770095        8.1038125734
 Pt        -0.7264368005        1.3545745651        8.1583505285
 Pt         3.9617800288        1.3549315276        8.1567124575
 Pt         1.5882781436        2.7092619695        8.1027713181
 Pt         6.2802886112        2.7090048050        8.1029593493
 Pt         6.2787336367        0.0009492719        8.1007818040
 Pt         1.5912297480        0.0006358501        8.1028946425
 Pt        -0.7260025093        6.7703578953        8.1618628996
 Pt         3.9627986844        6.7697347381        8.1619624189
 Pt        -0.7265096268        4.0632386507        8.1628227839
 Pt         3.9624903253        4.0612604529        8.1627071546
 Ni         0.0369881662        5.4293446128       10.3723024135
 Ni         4.7233272506        2.6931568483       10.3713896219
 Ni         0.0349467214        0.0122441924       10.3720795130
 Ni         4.6939040581        5.4166715573       10.3817172519
 Pt        -2.3115978645        4.0485570407       10.3736619246
 Pt        -2.3124557460        6.7845803233       10.3718311219
 Ni         0.0066271734        2.7074880477       10.3814027238
 Ni         4.7084396718        0.0215811457       10.3808931741
 Pt         2.3774265761        4.0779355513       10.3737226989
 Pt         2.3751124319        1.3416656910       10.3712267192
 Pt         2.3776111551        6.7580737044       10.3733785180
 Pt         7.0667439673        1.3703047159       10.3720712285
 Pt        -3.9029364160        6.7703889895       12.5309152513
 Pt        -1.5583872454        5.4166567813       12.5279947617
 Ni        -1.5460355851        2.7062397988       12.5068905123
 Pt         0.7886801213        4.0663041569       12.5307007100
 Pt         0.7876490387        1.3563303309       12.5312422534
 Pt         0.7870183735        6.7742133548       12.5321390069
 Ni         3.1208626629       -0.0062808835       12.5074427549
 Pt         3.1298995387        2.7084972599       12.5277818400
 Ni         3.1387432901        5.4197502791       12.5069750719
 Pt         5.4770275233        4.0614903264       12.5303483208
 Pt         5.4758657627        1.3576970527       12.5302819752
 Pt         7.8198344644        0.0034288005       12.5302455667
 Pt        -0.8037210845        1.3720212903       14.6854535999
 Pt         3.8805957416        6.7550721950       14.6831127868
 Pt         3.8803533195        1.3401059682       14.6817372746
 Pt         3.8773822633        4.0806185195       14.6807095327
 Ni         6.2441613887        2.7019869108       14.6817038630
 Pt        -0.8073728582        6.7868160046       14.6820937799
 Ni         1.5698553817        0.0117215001       14.6813501294
 Pt        -0.8113293022        4.0454444388       14.6812996115
 Ni         1.5535546972        5.4222759893       14.6811704934
 Ni         6.2276519721        0.0300624839       14.6904686829
 Ni        -3.1514552664        5.4161902665       14.6904725774
 Ni         1.5385246801        2.7072052228       14.6909827600
 Pt         2.3009807606        4.0623611939       16.8997185777
 Pt        -2.3880448275        4.0617109314       16.9002013133
 Pt         2.3005582597        6.7705073554       16.8980780078
 Pt        -2.3877731551        6.7688680906       16.8997204455
 Pt         4.6716862886        0.0009044079       16.9536702039
 Pt        -0.0148883877        0.0002826097       16.9559734690
 Pt        -0.0168944140        2.7091271853       16.9559033892
 Pt         4.6733503178        2.7090416649       16.9544759537
 Pt         6.9912238755        1.3550121987       16.9049815678
 Pt         2.3014643534        1.3552763110       16.9022511607
 Pt         4.6715450647        5.4154548079       16.9544344947
 Pt        -0.0156256091        5.4154582349       16.9543164659
      60
 i =        6, E =     -7949.3305209463
 Pt        -3.0997152696        5.4161813759        8.1017332932
 Pt         1.5920329316        5.4166088746        8.1023729301
 Pt        -0.7267405183        1.3555315320        8.1568075342
 Pt         3.9618587067        1.3549101099        8.1556266963
 Pt         1.5886599138        2.7092182746        8.1016351248
 Pt         6.2802816523        2.7091822785        8.1023319255
 Pt         6.2784581057        0.0018595498        8.1002742785
 Pt         1.5905865566        0.0015404835        8.1022305137
 Pt        -0.7254164139        6.7710383046        8.1614279727
 Pt         3.9634845826        6.7701074563        8.1610874884
 Pt        -0.7252438248        4.0637186936        8.1632927122
 Pt         3.9636592371        4.0619796422        8.1625497014
 Ni         0.0372898897        5.4308306306       10.3719990734
 Ni         4.7240499664        2.6947739077       10.3701914138
 Ni         0.0359081466        0.0131544397       10.3710831039
 Ni         4.6948108428        5.4169540262       10.3815438414
 Pt        -2.3125283447        4.0493417745       10.3722389115
 Pt        -2.3121070820        6.7853501245       10.3707035543
 Ni         0.0066068733        2.7075792679       10.3812877128
 Ni         4.7131468473        0.0184415120       10.3817393568
 Pt         2.3757648002        4.0778031860       10.3716151234
 Pt         2.3777995924        1.3414232406       10.3703876128
 Pt         2.3785960821        6.7578948815       10.3723199616
 Pt         7.0691646201        1.3712002931       10.3713223184
 Pt        -3.9026160612        6.7709948323       12.5303466401
 Pt        -1.5578598498        5.4165545634       12.5271085817
 Ni        -1.5445886149        2.7073742484       12.5072865964
 Pt         0.7893753884        4.0666942487       12.5300172391
 Pt         0.7881711244        1.3570656916       12.5304574185
 Pt         0.7880710835        6.7742250551       12.5321888121
 Ni         3.1211342307       -0.0042812271       12.5065545568
 Pt         3.1306716124        2.7098829866       12.5261693329
 Ni         3.1407106484        5.4185795505       12.5063301003
 Pt         5.4775936105        4.0618509787       12.5294487605
 Pt         5.4763499826        1.3581582015       12.5296722601
 Pt         7.8201407688        0.0031516845       12.5291833907
 Pt        -0.8063780294        1.3726513529       14.6838930356
 Pt         3.8799721162        6.7558203319       14.6821257698
 Pt         3.8779610483        1.3409509406       14.6803930349
 Pt         3.8781351998        4.0808619190       14.6802032802
 Ni         6.2413947555        2.7035381429       14.6815299255
 Pt        -0.8078497842        6.7874534537       14.6812457670
 Ni         1.5691526185        0.0130246844       14.6813519110
 Pt        -0.8102602327        4.0465631408       14.6809280137
 Ni         1.5536615185        5.4223194669       14.6813295197
 Ni         6.2255480051        0.0305903224       14.6898826838
 Ni        -3.1519067546        5.4160851895       14.6893967101
 Ni         1.5387208111        2.7085345264       14.6898913005
 Pt         2.2993051063        4.0631918764       16.8978231424
 Pt        -2.3896158003        4.0623346391       16.8981347956
 Pt         2.2993515124        6.7708741592       16.8964749925
 Pt        -2.3889425095        6.7694546750       16.8983330069
 Pt         4.6716620545        0.0018018554       16.9520768651
 Pt        -0.0148622641        0.0012252935       16.9535576602
 Pt        -0.0175890900        2.7091999923       16.9543197794
 Pt         4.6727322663        2.7093218229       16.9530411215
 Pt         6.9906973163        1.3561054514       16.9041635055
 Pt         2.3012241019        1.3556295849       16.9023287213
 Pt         4.6702055763        5.4162876505       16.9530300190
 Pt        -0.0167337723        5.4162828866       16.9538118051
      60
 i =        7, E =     -7949.3305476918
 Pt        -3.0987269715        5.4176359439        8.0993147982
 Pt         1.5928525139        5.4180231457        8.0998630139
 Pt        -0.7261073088        1.3571344559        8.1543737561
 Pt         3.9628226706        1.3556290874        8.1542839578
 Pt         1.5895793579        2.7096839728        8.0991188966
 Pt         6.2809772922        2.7101113484        8.1002754796
 Pt         6.2796024895        0.0031934146        8.0982672141
 Pt         1.5910249099        0.0028714004        8.0997775450
 Pt        -0.7246282590        6.7719753883        8.1600515649
 Pt         3.9644247959        6.7711476911        8.1589740575
 Pt        -0.7240720472        4.0649209005        8.1626731287
 Pt         3.9646678574        4.0630663650        8.1610957233
 Ni         0.0381013708        5.4308799059       10.3711979365
 Ni         4.7253728651        2.6942830300       10.3680342424
 Ni         0.0351733906        0.0146377020       10.3689248328
 Ni         4.6960575634        5.4171534196       10.3807454670
 Pt        -2.3133503267        4.0508285272       10.3695554796
 Pt        -2.3112148876        6.7867591217       10.3690217352
 Ni         0.0068810198        2.7077406805       10.3806768844
 Ni         4.7218675616        0.0117097622       10.3803835169
 Pt         2.3745876060        4.0778208697       10.3680154427
 Pt         2.3812084692        1.3411709170       10.3686576569
 Pt         2.3804412169        6.7578155186       10.3706330771
 Pt         7.0721705080        1.3724491753       10.3700351773
 Pt        -3.9012734186        6.7722988549       12.5287413989
 Pt        -1.5568612048        5.4175376756       12.5251294722
 Ni        -1.5434276245        2.7093312327       12.5064371424
 Pt         0.7904246264        4.0675508620       12.5288251706
 Pt         0.7890507362        1.3582610610       12.5286509516
 Pt         0.7896769971        6.7744831424       12.5315643865
 Ni         3.1217988785       -0.0000542486       12.5050972636
 Pt         3.1317874390        2.7124862571       12.5229965001
 Ni         3.1436882288        5.4172510084       12.5051637503
 Pt         5.4788609933        4.0628630375       12.5274158145
 Pt         5.4773746040        1.3586457988       12.5281485134
 Pt         7.8209882396        0.0033035275       12.5273165984
 Pt        -0.8102224818        1.3746451859       14.6805168249
 Pt         3.8790946943        6.7571654921       14.6798636426
 Pt         3.8750684110        1.3422245557       14.6777088763
 Pt         3.8785016808        4.0818940513       14.6784766529
 Ni         6.2354969019        2.7072635082       14.6813150368
 Pt        -0.8087580290        6.7889585606       14.6792039448
 Ni         1.5682719880        0.0154755191       14.6808197443
 Pt        -0.8094145358        4.0478893439       14.6794436110
 Ni         1.5534320515        5.4222645588       14.6809779830
 Ni         6.2222440713        0.0310345595       14.6889274808
 Ni        -3.1521541299        5.4165967681       14.6878834644
 Ni         1.5392062080        2.7096438750       14.6883998343
 Pt         2.2972492568        4.0645769022       16.8955494962
 Pt        -2.3914613482        4.0638298692       16.8956117801
 Pt         2.2974871478        6.7722689638       16.8939967346
 Pt        -2.3906814786        6.7708099516       16.8960553916
 Pt         4.6699065941        0.0033690112       16.9503338441
 Pt        -0.0162237458        0.0029308989       16.9503871996
 Pt        -0.0193843725        2.7100729438       16.9520384003
 Pt         4.6707734788        2.7103185687       16.9513849097
 Pt         6.9889627737        1.3576643214       16.9016877327
 Pt         2.2997587715        1.3568938213       16.9013574285
 Pt         4.6682726480        5.4179218430       16.9504008077
 Pt        -0.0186677520        5.4178281376       16.9522352774
      60
 i =        8, E =     -7949.3305648493
 Pt        -3.0987070979        5.4180131834        8.0995535062
 Pt         1.5929443833        5.4181338156        8.1000574306
 Pt        -0.7252408990        1.3573643102        8.1544589752
 Pt         3.9636899493        1.3559663148        8.1546925221
 Pt         1.5901169995        2.7100673847        8.0990093496
 Pt         6.2815676548        2.7105106608        8.0995302789
 Pt         6.2803544148        0.0032836269        8.0981183437
 Pt         1.5921256969        0.0031102897        8.0986575305
 Pt        -0.7244090387        6.7722273854        8.1594564445
 Pt         3.9646869575        6.7715181074        8.1584784466
 Pt        -0.7242223351        4.0651871725        8.1616710017
 Pt         3.9645529291        4.0632773661        8.1601429670
 Ni         0.0383524687        5.4309925442       10.3707521616
 Ni         4.7261225688        2.6943913858       10.3671308813
 Ni         0.0349107580        0.0150242454       10.3680481844
 Ni         4.6962420349        5.4176977640       10.3806733659
 Pt        -2.3127270943        4.0508647125       10.3691180693
 Pt        -2.3109129192        6.7870341744       10.3687837639
 Ni         0.0069815951        2.7079409947       10.3804481908
 Ni         4.7199969242        0.0115522938       10.3798155152
 Pt         2.3753923874        4.0780334915       10.3677493974
 Pt         2.3809161082        1.3416517566       10.3683352446
 Pt         2.3809341039        6.7579139191       10.3705213235
 Pt         7.0720520238        1.3723069907       10.3697354362
 Pt        -3.9008601933        6.7727640494       12.5282138005
 Pt        -1.5566950919        5.4181922118       12.5244105179
 Ni        -1.5446688120        2.7091117696       12.5065057227
 Pt         0.7902975278        4.0676597832       12.5282367490
 Pt         0.7891001255        1.3586514511       12.5280743242
 Pt         0.7896275008        6.7746171053       12.5308729190
 Ni         3.1212304165        0.0018921772       12.5064837005
 Pt         3.1321174893        2.7129276073       12.5222153278
 Ni         3.1426495775        5.4174292495       12.5062383754
 Pt         5.4789938037        4.0631681736       12.5267729688
 Pt         5.4772552679        1.3586913505       12.5274960495