      60
 i =        1, E =     -7949.3286679900
 Pt        -0.0009134161        0.0001197718        0.0006795818
 Pt        -0.0002874316        0.0001563013       -0.0005058779
 Pt         0.0009514746        0.0002484050        0.0003595922
 Pt         0.0008706511       -0.0003927156        0.0002662899
 Pt        -0.0002611094       -0.0001336599       -0.0019609232
 Pt         0.0005428215       -0.0004897894       -0.0020210669
 Pt         0.0002655114        0.0002506640       -0.0034147173
 Pt         0.0011085567        0.0005389553       -0.0030233143
 Pt         0.0000949485        0.0011930873       -0.0015931768
 Pt        -0.0003024110        0.0005000316       -0.0016249405
 Pt        -0.0004547849       -0.0007983323       -0.0027741492
 Pt        -0.0010978902       -0.0000728240       -0.0028487467
 Ni         0.0001517617       -0.0010494219        0.0000255139
 Ni        -0.0004847548       -0.0009135000        0.0002462715
 Ni         0.0002953770       -0.0017060436       -0.0000646588
 Ni        -0.0007227457       -0.0002416616        0.0016693026
 Pt         0.0013855342       -0.0010445553        0.0004796173
 Pt         0.0000731618        0.0013948316        0.0005386798
 Ni        -0.0016149491       -0.0013068927        0.0023757400
 Ni         0.0013239592        0.0017322179        0.0042070699
 Pt         0.0011135739       -0.0003660411        0.0003543282
 Pt        -0.0017385423        0.0000650295       -0.0001465363
 Pt        -0.0003628474        0.0017927813        0.0006383616
 Pt        -0.0018863380       -0.0009433626        0.0000048128
 Pt         0.0002101453       -0.0000008091        0.0001362899
 Pt         0.0003678617        0.0007963342        0.0001418674
 Ni        -0.0004167459        0.0022040366       -0.0012264991
 Pt         0.0000928288        0.0003900693        0.0001493501
 Pt         0.0006082934        0.0003696846       -0.0001600307
 Pt         0.0002599799        0.0002687435       -0.0003695421
 Ni         0.0030180780       -0.0007464876       -0.0006823949
 Pt         0.0002690871       -0.0002146655        0.0000497562
 Ni        -0.0008165616       -0.0022024775       -0.0009723843
 Pt        -0.0001419182       -0.0000302130        0.0002682953
 Pt         0.0004515479       -0.0000538102       -0.0005103239
 Pt         0.0002229548        0.0002954444        0.0005590625
 Pt         0.0019300948       -0.0013247735        0.0000461790
 Pt         0.0005040835        0.0018421036       -0.0005327584
 Pt         0.0018415883        0.0002035141        0.0001130733
 Pt        -0.0006856800       -0.0007473901       -0.0006113373
 Ni        -0.0016767469       -0.0013511557       -0.0024316894
 Pt         0.0000160145        0.0008576436       -0.0004225618
 Ni        -0.0010599337        0.0002506057       -0.0031883627
 Pt        -0.0008768548       -0.0005022558       -0.0006028719
 Ni        -0.0005188652        0.0002286537       -0.0018891146
 Ni        -0.0007384989        0.0008617029        0.0001533557
 Ni         0.0014961949        0.0004805890        0.0008998383
 Ni        -0.0008330184        0.0012323728        0.0008544266
 Pt         0.0009239227       -0.0000414735        0.0029422204
 Pt         0.0004197622       -0.0008119938        0.0029327117
 Pt         0.0002446823        0.0004999599        0.0016979251
 Pt         0.0000224736        0.0011229488        0.0013803426
 Pt        -0.0012442196        0.0003933493        0.0027693782
 Pt        -0.0003579964        0.0001562889        0.0035169912
 Pt        -0.0004813792       -0.0002957155        0.0021301454
 Pt         0.0002087942       -0.0002935402        0.0018984192
 Pt        -0.0007813060        0.0001893812       -0.0004060030
 Pt        -0.0006612538       -0.0006125417       -0.0007514224
 Pt         0.0003305847        0.0000470404        0.0006682669
 Pt         0.0007346660        0.0002504807       -0.0004874938
      60
 i =        2, E =     -7949.3300085062
 Pt         0.0005576777        0.0000382141       -0.0007427961
 Pt         0.0002985746       -0.0000137324       -0.0011688750
 Pt        -0.0001688621       -0.0002642729       -0.0009679651
 Pt        -0.0001997917        0.0003602932       -0.0009455058
 Pt         0.0004049747        0.0002938122       -0.0009842638
 Pt         0.0003006149        0.0002107435       -0.0004397045
 Pt         0.0006429104       -0.0000368059       -0.0008708362
 Pt         0.0003989114       -0.0000024963        0.0001412806
 Pt        -0.0002382630       -0.0000523959       -0.0004445481
 Pt        -0.0004228372        0.0003658917       -0.0004817321
 Pt        -0.0003649725        0.0002138182       -0.0001566070
 Pt        -0.0005419924       -0.0002074781       -0.0003297091
 Ni        -0.0001805868       -0.0000360678       -0.0004675143
 Ni        -0.0003535522       -0.0006719619       -0.0004018217
 Ni        -0.0012022460       -0.0002110451       -0.0002998797
 Ni        -0.0013297117        0.0002583448        0.0001132924
 Pt         0.0007763042       -0.0001511712        0.0004080826
 Pt         0.0001785791        0.0001059085        0.0000194305
 Ni         0.0002187867        0.0003145038        0.0002198705
 Ni         0.0017256482        0.0018093143        0.0000837769
 Pt         0.0005183095        0.0003381933        0.0004073947
 Pt        -0.0006256107        0.0001843602       -0.0003192221
 Pt         0.0000219938       -0.0002762854       -0.0001630566
 Pt        -0.0008490057        0.0001196416       -0.0002111802
 Pt         0.0001557474        0.0001224564        0.0000469877
 Pt         0.0001661546        0.0004677172       -0.0000942944
 Ni         0.0012593062       -0.0010380419       -0.0017315221
 Pt         0.0001457991        0.0001411499       -0.0000146481
 Pt        -0.0000618479       -0.0000805901        0.0001178190
 Pt         0.0001115443        0.0000691003        0.0001265890
 Ni        -0.0016680587       -0.0003848399       -0.0013978387
 Pt         0.0000527060       -0.0004202161       -0.0003786451
 Ni         0.0010185165        0.0010250860       -0.0015942676
 Pt         0.0001609295        0.0001617362        0.0000715254
 Pt        -0.0000005736        0.0002765361        0.0001955197
 Pt         0.0004140225        0.0004516391       -0.0002508555
 Pt         0.0012688035        0.0000621537        0.0005245013
 Pt         0.0003887908        0.0000569785        0.0003379187
 Pt         0.0012630131        0.0003045596       -0.0000489462
 Pt        -0.0004462184        0.0002752401        0.0000274638
 Ni        -0.0003569173        0.0006169151       -0.0000386287
 Pt         0.0000880528        0.0001419307       -0.0002367089
 Ni        -0.0003911159        0.0001629188        0.0001880579
 Pt        -0.0006094176       -0.0001342082       -0.0001269526
 Ni         0.0000706908       -0.0002965088       -0.0003055703
 Ni        -0.0011185993        0.0001154492        0.0002400556
 Ni         0.0001315052        0.0005005518        0.0000760435
 Ni        -0.0000138352       -0.0012431615        0.0002281071
 Pt         0.0004313722       -0.0002265890        0.0002627524
 Pt         0.0002443585        0.0002347841        0.0002599440
 Pt         0.0005628044        0.0004062957        0.0004632146
 Pt         0.0001792354       -0.0002161321        0.0004086408
 Pt        -0.0003319112        0.0000290511       -0.0000770587
 Pt        -0.0007646265       -0.0000806614        0.0005424952
 Pt        -0.0002221596        0.0002115207        0.0003999303
 Pt        -0.0004770458        0.0003734809        0.0008468575
 Pt         0.0002717382       -0.0002989148        0.0009633280
 Pt        -0.0000779647        0.0005056479        0.0008318091
 Pt        -0.0002711490        0.0000004739        0.0011125164
 Pt        -0.0005726784       -0.0001054524        0.0008339211
      60
 i =        3, E =     -7949.3302952035
 Pt         0.0002289533        0.0000203918       -0.0005448055
 Pt         0.0001080620       -0.0000263379       -0.0006592535
 Pt        -0.0001484753        0.0000959412       -0.0007606495
 Pt        -0.0001053871        0.0001525879       -0.0007203450
 Pt         0.0000672240        0.0001448292       -0.0003893796
 Pt        -0.0000751197        0.0002708717        0.0000101726
 Pt         0.0000501917        0.0000933566       -0.0001714555
 Pt        -0.0001823710       -0.0000360873        0.0003570032
 Pt         0.0001031637       -0.0000906165       -0.0000937450
 Pt         0.0001214304       -0.0000624798       -0.0002518770
 Pt         0.0001737267        0.0002691417        0.0002678786
 Pt         0.0002652568        0.0001206040        0.0001450714
 Ni         0.0000658475       -0.0001880626       -0.0001947070
 Ni        -0.0001798436       -0.0001311178       -0.0002569029
 Ni         0.0002478847       -0.0000466150       -0.0002245211
 Ni        -0.0004414608       -0.0002787314        0.0001599021
 Pt         0.0002641167        0.0001579788       -0.0002338041
 Pt         0.0000446501       -0.0003120957       -0.0000899810
 Ni         0.0000921238        0.0000578346       -0.0000114746
 Ni         0.0008259257       -0.0000172529       -0.0009543733
 Pt         0.0000367138        0.0003359683       -0.0003852997
 Pt        -0.0000635702        0.0003546112       -0.0003070482
 Pt        -0.0000413246       -0.0000746713       -0.0002790764
 Pt        -0.0001733042        0.0000593942       -0.0002421202
 Pt         0.0000391820       -0.0000059030       -0.0000486424
 Pt         0.0000808868        0.0002376954       -0.0002134131
 Ni         0.0000390141        0.0014041872       -0.0018329800
 Pt         0.0000547827       -0.0000116679        0.0000580557
 Pt        -0.0000152118        0.0000905261       -0.0000099680
 Pt         0.0001726919        0.0001246546        0.0000124808
 Ni         0.0010000898        0.0002440200       -0.0015317044
 Pt         0.0001171857       -0.0002055876       -0.0001645454
 Ni        -0.0001831668       -0.0012372547       -0.0018171765
 Pt        -0.0000422375        0.0001932000        0.0001058117
 Pt         0.0003247128        0.0001657862       -0.0001326560
 Pt        -0.0001090989        0.0001886067       -0.0003518468
 Pt         0.0003733282        0.0001149533        0.0004049860
 Pt         0.0002522315       -0.0002427279        0.0002944720
 Pt         0.0001095962        0.0003676302        0.0006063182
 Pt         0.0000078148        0.0001863049        0.0001960479
 Ni        -0.0005406608        0.0000566984        0.0005860366
 Pt         0.0000053399       -0.0002102785        0.0003011934
 Ni         0.0000652972        0.0001906317        0.0002447173
 Pt        -0.0000619562        0.0002541296        0.0002139326
 Ni        -0.0002598998        0.0003464407        0.0004725261
 Ni        -0.0008024010        0.0001585703        0.0000493925
 Ni        -0.0002254352       -0.0000606023       -0.0000682419
 Ni         0.0000749336       -0.0005861801       -0.0000408558
 Pt        -0.0002443112        0.0001095072       -0.0003233998
 Pt        -0.0001517496        0.0001609553       -0.0003350311
 Pt        -0.0002186005       -0.0000304308        0.0000487292
 Pt        -0.0000266676       -0.0000422833       -0.0000274000
 Pt         0.0001024844       -0.0000007831       -0.0005940423
 Pt        -0.0000287075        0.0000441342       -0.0000276612
 Pt        -0.0000444492        0.0001876773       -0.0000955999
 Pt        -0.0001600376        0.0001357240        0.0000118273
 Pt         0.0000437781        0.0000741573        0.0006138536
 Pt         0.0001930903        0.0001407476        0.0004735173
 Pt        -0.0002763659        0.0000319497        0.0004793950
 Pt        -0.0002702540        0.0000575795        0.0002942761
      60
 i =        4, E =     -7949.3304264006
 Pt        -0.0000956763        0.0001265052       -0.0003203588
 Pt         0.0000261094        0.0001595660       -0.0001800923
 Pt        -0.0000025213        0.0002151901       -0.0002128397
 Pt         0.0000447193       -0.0001367047       -0.0003086541
 Pt        -0.0001543201       -0.0001119656       -0.0001293211
 Pt        -0.0001397602       -0.0000226398        0.0000051902
 Pt        -0.0003322472        0.0001636005        0.0000657013
 Pt        -0.0003109606        0.0000948898        0.0001030170
 Pt         0.0002861877        0.0001874436        0.0000056410
 Pt         0.0003022423       -0.0000926690       -0.0000772191
 Pt         0.0004114260        0.0000353739        0.0001167014
 Pt         0.0004637297        0.0002331613        0.0000623554
 Ni         0.0001615957        0.0000884894       -0.0000484529
 Ni         0.0000965684        0.0004289198       -0.0001628391
 Ni         0.0004430556        0.0001497914       -0.0001141789
 Ni         0.0003939655       -0.0000992159        0.0000245327
 Pt        -0.0003227873        0.0002909331       -0.0001151297
 Pt        -0.0000568731        0.0000803849       -0.0002022878
 Ni        -0.0001139916       -0.0001409606        0.0000383810
 Ni        -0.0005600662       -0.0025452439        0.0003571008
 Pt        -0.0003886591       -0.0000837131       -0.0002405262
 Pt         0.0003396715       -0.0000243593       -0.0001222181
 Pt        -0.0000127668        0.0000845210       -0.0002635212
 Pt         0.0005356755        0.0001178768       -0.0002425249
 Pt        -0.0000823906        0.0000620202       -0.0001784856
 Pt         0.0000364847       -0.0002285453       -0.0001710931
 Ni         0.0006151682       -0.0000387523        0.0002837679
 Pt         0.0000622017       -0.0000381099       -0.0001035377
 Pt         0.0000715364        0.0000857015       -0.0002243916
 Pt         0.0000764912        0.0001251386       -0.0000629790
 Ni         0.0001930965        0.0004296333       -0.0001806970
 Pt         0.0000450168        0.0002202613       -0.0001389547
 Ni         0.0005991704        0.0002042854       -0.0003323997
 Pt        -0.0000151626        0.0001505308       -0.0001375106
 Pt         0.0001457437        0.0000210484       -0.0000961629
 Pt         0.0000077264       -0.0000939643       -0.0001225747
 Pt        -0.0004908818       -0.0001405102        0.0000556104
 Pt        -0.0000695971        0.0001302093        0.0000679284
 Pt        -0.0005184338        0.0001714628        0.0001434542
 Pt         0.0002312368       -0.0001079470        0.0000001690
 Ni        -0.0004640864        0.0000734736        0.0001685143
 Pt         0.0000466585       -0.0000550745        0.0001207064
 Ni        -0.0001621517        0.0001455463        0.0002828708
 Pt         0.0002662901        0.0004090095        0.0000451280
 Ni        -0.0001157085        0.0000366509        0.0002443330
 Ni        -0.0002571818        0.0000370929       -0.0000413312
 Ni        -0.0002360259       -0.0002306784       -0.0001110088
 Ni         0.0000231295        0.0003745429       -0.0001710781
 Pt        -0.0004917533        0.0002885978       -0.0003912168
 Pt        -0.0003793215       -0.0000225101       -0.0003976696
 Pt        -0.0003615165       -0.0001305878       -0.0002961871
 Pt        -0.0003024538        0.0001706643       -0.0002355975
 Pt         0.0002432207        0.0000902422       -0.0003877533
 Pt         0.0002389134        0.0001601469       -0.0005360831
 Pt        -0.0000241680       -0.0000978465       -0.0003034207
 Pt         0.0001374435       -0.0000545479       -0.0003379693
 Pt        -0.0000412737        0.0002576016       -0.0000912033
 Pt         0.0000020681       -0.0001496132        0.0000188826
 Pt        -0.0001707937        0.0001864747       -0.0002223625
 Pt         0.0000368165        0.0001474232       -0.0001226120
      60
 i =        5, E =     -7949.3304862377
 Pt        -0.0000166982        0.0000613331       -0.0000714137
 Pt         0.0000503165        0.0000859269       -0.0000192375
 Pt         0.0000050192        0.0001212252        0.0000011718
 Pt         0.0000356408        0.0000179552       -0.0000166068
 Pt         0.0000575339       -0.0000060147       -0.0000768924
 Pt         0.0000045029        0.0000024365       -0.0000857644
 Pt        -0.0000265145        0.0000905931       -0.0000620675
 Pt        -0.0000344729        0.0001160578       -0.0002301481
 Pt         0.0000664120        0.0000713637       -0.0000235384
 Pt         0.0000783033        0.0000402492       -0.0000937618
 Pt         0.0001022900        0.0000081759       -0.0000501579
 Pt         0.0001021967        0.0000436569       -0.0000741854
 Ni         0.0000907892        0.0003856193        0.0000181384
 Ni         0.0001493658        0.0004394054       -0.0001057935
 Ni         0.0000898607        0.0001484516       -0.0000878643
 Ni         0.0002516648       -0.0000163594       -0.0000224046
 Pt        -0.0002003838        0.0000351519       -0.0002443540
 Pt         0.0000254126        0.0000974874       -0.0001801862
 Ni        -0.0000292255       -0.0000217051       -0.0000304602
 Ni         0.0008262172       -0.0002289932        0.0001229865
 Pt        -0.0001796260       -0.0000914498       -0.0002906243
 Pt         0.0002251343       -0.0000416815       -0.0000390553
 Pt        -0.0000165537        0.0000846116       -0.0001340204
 Pt         0.0003686858        0.0000377381       -0.0001342524
 Pt        -0.0000254047        0.0000329050       -0.0001069082
 Pt         0.0000790957       -0.0001040257       -0.0000518047
 Ni         0.0001525101        0.0001623463        0.0002061649
 Pt         0.0000198431       -0.0000187335       -0.0000592020
 Pt         0.0000566138        0.0001036288       -0.0001197240
 Pt         0.0000712843        0.0000864545       -0.0001451831
 Ni         0.0000257246        0.0003288236        0.0000897567
 Pt         0.0001045016        0.0001697153       -0.0001432763
 Ni         0.0002374045       -0.0002480884        0.0002050445
 Pt        -0.0000164194        0.0000495315       -0.0001240732
 Pt        -0.0000460825       -0.0000459984       -0.0000237371
 Pt         0.0000628242       -0.0000374077       -0.0000731397
 Pt        -0.0003458980        0.0000659106       -0.0003099272
 Pt        -0.0000999105        0.0001242196       -0.0001659668
 Pt        -0.0003212252        0.0000427936       -0.0002574458
 Pt         0.0001371421       -0.0000113568       -0.0000927291
 Ni        -0.0003459485        0.0002791369        0.0000009783
 Pt        -0.0000139507        0.0001310980       -0.0000753433
 Ni         0.0000067661        0.0001738845       -0.0000118338
 Pt         0.0001674809        0.0000930540       -0.0001027498
 Ni        -0.0000105171       -0.0000749157        0.0001051611
 Ni        -0.0001486514        0.0000269015       -0.0000726348
 Ni        -0.0000510990       -0.0001024056       -0.0000970844
 Ni         0.0000648479        0.0003260175       -0.0001171613
 Pt        -0.0001778096        0.0001189560       -0.0001490534
 Pt        -0.0001841198        0.0000486477       -0.0001534700
 Pt        -0.0001623099        0.0000153422       -0.0001873658
 Pt        -0.0001614017        0.0000964679       -0.0001483453
 Pt        -0.0000289247        0.0001072148       -0.0000382878
 Pt         0.0000555345        0.0001021523       -0.0001831358
 Pt        -0.0000806860        0.0000075315       -0.0001229614
 Pt        -0.0000130843        0.0000225618       -0.0001803932
 Pt        -0.0001407657        0.0001471233       -0.0002170715
 Pt        -0.0001019097       -0.0000073747       -0.0001314783
 Pt        -0.0000800105        0.0000785488       -0.0002806949
 Pt        -0.0000342441        0.0000882876       -0.0001793765
      60
 i =        6, E =     -7949.3305209463
 Pt         0.0000862342        0.0000697582        0.0000415647
 Pt         0.0000104165        0.0000335611       -0.0000146002
 Pt         0.0001029458        0.0000276915        0.0000114739
 Pt         0.0000820656        0.0001071790        0.0000739474
 Pt         0.0001132500        0.0000589298       -0.0000676397
 Pt         0.0000946977        0.0000720632       -0.0001406010
 Pt         0.0001737830        0.0000097887       -0.0000686650
 Pt         0.0001721254        0.0000411549       -0.0002604439
 Pt        -0.0000314948        0.0000048128       -0.0000566980
 Pt        -0.0000264646        0.0000998972       -0.0000835865
 Pt        -0.0000850909        0.0000762999       -0.0001226917
 Pt        -0.0001101487       -0.0000169820       -0.0001400950
 Ni         0.0000387738       -0.0000894377       -0.0000039933
 Ni         0.0000818283       -0.0002264219       -0.0000534453
 Ni        -0.0003275788        0.0000923526       -0.0000770174
 Ni         0.0000851933        0.0000313037       -0.0000645357
 Pt         0.0000154105        0.0000526706       -0.0001442034
 Pt         0.0000647899       -0.0000127024       -0.0000503957
 Ni         0.0000308836        0.0000022594       -0.0000599364
 Ni         0.0006556691       -0.0001352699       -0.0003284629
 Pt         0.0000567945       -0.0000201769       -0.0001454161
 Pt         0.0000477972        0.0000628484       -0.0000116773
 Pt         0.0000677678        0.0000901789       -0.0000374745
 Pt         0.0000990170       -0.0000294590        0.0000280602
 Pt         0.0001137080        0.0000473711       -0.0001157441
 Pt         0.0000332365        0.0000971768       -0.0001037606
 Ni        -0.0001424635        0.0000509972       -0.0000450272
 Pt         0.0000052956        0.0000643773       -0.0000636012
 Pt         0.0000484791        0.0000290817       -0.0000929406
 Pt         0.0000309812        0.0000196003       -0.0001164766
 Ni        -0.0000527126        0.0002541882        0.0002450341
 Pt         0.0000307569        0.0001144226       -0.0001489646
 Ni         0.0000433831       -0.0000933365        0.0002271102
 Pt         0.0000570913        0.0000517833       -0.0000955919
 Pt         0.0000099351       -0.0000122234       -0.0000958187
 Pt         0.0000744572        0.0000627392       -0.0001007182
 Pt        -0.0001035659        0.0001775847       -0.0003188692
 Pt        -0.0000786519        0.0000366139       -0.0002131481
 Pt        -0.0001035322       -0.0000344318       -0.0002666572
 Pt        -0.0000118199        0.0000871497       -0.0001851590
 Ni        -0.0003315140        0.0003152310       -0.0000207494
 Pt        -0.0000557652        0.0001485069       -0.0001626453
 Ni         0.0000798910        0.0001519833       -0.0001313757
 Pt         0.0000017433       -0.0000256667       -0.0001393869
 Ni        -0.0000051372       -0.0000265845       -0.0000913488
 Ni        -0.0000482265       -0.0000939211       -0.0000347665
 Ni         0.0000502568        0.0000347707       -0.0000217303
 Ni         0.0000421145       -0.0000223521       -0.0000103313
 Pt         0.0000235011        0.0000055672       -0.0000151178
 Pt         0.0000155702        0.0001046823       -0.0000401972
 Pt        -0.0000195133        0.0001490795       -0.0000994742
 Pt        -0.0000204576        0.0000546402       -0.0001042475
 Pt        -0.0002187331        0.0000632403        0.0000407780
 Pt        -0.0001724433        0.0000617481       -0.0000526163
 Pt        -0.0001162477        0.0000953945       -0.0000658052
 Pt        -0.0001506888        0.0000752262       -0.0000437790
 Pt        -0.0001336598        0.0000078132       -0.0002225704
 Pt        -0.0001395315        0.0001122218       -0.0001885247
 Pt        -0.0000286239        0.0000662070       -0.0001886713
 Pt        -0.0001027503        0.0000574953       -0.0001484128
      60
 i =        7, E =     -7949.3305476918
 Pt         0.0000476254        0.0000394800        0.0000786482
 Pt         0.0000328179       -0.0000337700        0.0000143093
 Pt         0.0001547107       -0.0000505865        0.0000092126
 Pt         0.0001438088        0.0000608486        0.0000967773
 Pt         0.0001174872        0.0000985364        0.0000045370
 Pt         0.0001245318        0.0000825849       -0.0001147277
 Pt         0.0001902174       -0.0000307875       -0.0000411267
 Pt         0.0002640828       -0.0000063162       -0.0001225316
 Pt        -0.0000209396        0.0000380653       -0.0000865228
 Pt        -0.0000244102        0.0000886201       -0.0000456417
 Pt        -0.0001188289        0.0000428542       -0.0001980790
 Pt        -0.0001207548       -0.0000190875       -0.0001641706
 Ni        -0.0000518191       -0.0000905089       -0.0000643049
 Ni         0.0000709743       -0.0001766272       -0.0001436871
 Ni        -0.0001807089       -0.0000022080       -0.0001304681
 Ni        -0.0001203238        0.0001693715       -0.0000398831
 Pt         0.0002324078       -0.0000222997        0.0000271953
 Pt         0.0001131955       -0.0000313095       -0.0000360930
 Ni         0.0000595918        0.0000266967       -0.0000434334
 Ni        -0.0008380611        0.0002860411       -0.0002198643
 Pt         0.0002467364        0.0000604509        0.0000765176
 Pt        -0.0001637047        0.0001402423       -0.0000602558
 Pt         0.0001667254       -0.0000164101        0.0000208958
 Pt        -0.0001900742       -0.0000341449        0.0000211165
 Pt         0.0001007352        0.0000957826       -0.0000377075
 Pt         0.0000045740        0.0001743802       -0.0001152343
 Ni        -0.0003714477       -0.0001943108       -0.0000440409
 Pt         0.0000132679        0.0000998520       -0.0001224047
 Pt         0.0000229572       -0.0000006818       -0.0000534865
 Pt         0.0000127398       -0.0000894530       -0.0000417085
 Ni        -0.0001963366        0.0003270955        0.0004252433
 Pt         0.0000261449       -0.0000851969       -0.0000588430
 Ni        -0.0004146884        0.0001472367        0.0002715054
 Pt         0.0000649791       -0.0000196990       -0.0000481091
 Pt        -0.0000293336        0.0000986397       -0.0001245692
 Pt         0.0000251690        0.0001017944       -0.0001291879
 Pt         0.0001791542        0.0001485631       -0.0001432144
 Pt        -0.0000132562        0.0000187034       -0.0001829028
 Pt         0.0001597988        0.0000199017       -0.0001790115
 Pt        -0.0001640104        0.0001393426       -0.0001951217
 Ni         0.0000239442        0.0001134376       -0.0000551279
 Pt        -0.0000664019        0.0000844792       -0.0001843772
 Ni         0.0000164052        0.0000040212       -0.0001318208
 Pt        -0.0002202707       -0.0000046825       -0.0001498968
 Ni        -0.0000291184        0.0000316560       -0.0001384693
 Ni         0.0001421953       -0.0003007678       -0.0000038784
 Ni         0.0000854714        0.0000670846        0.0000648621
 Ni         0.0000091319       -0.0002311907        0.0000991964
 Pt         0.0001143553       -0.0000270177        0.0000620095
 Pt         0.0000732706        0.0000832214        0.0000262653
 Pt         0.0000386495        0.0001827503       -0.0000340039
 Pt         0.0000140767        0.0000417636       -0.0000554074
 Pt        -0.0002522509        0.0000324168        0.0000572335
 Pt        -0.0002981678        0.0000448399       -0.0000107111
 Pt        -0.0001165656        0.0001406951       -0.0000504741
 Pt        -0.0001739562        0.0001311386        0.0000414306
 Pt        -0.0001399045       -0.0000316254       -0.0001924016
 Pt        -0.0001564991        0.0001699235       -0.0001946943
 Pt         0.0000062282        0.0000468996       -0.0000616960
 Pt        -0.0000924303        0.0000301724       -0.0001053465
      60
 i =        8, E =     -7949.3305648493
 Pt         0.0000565909        0.0000068009        0.0000121253
 Pt         0.0000436865       -0.0000006797       -0.0000395447
 Pt         0.0000904266       -0.0000336836       -0.0000417150
 Pt         0.0000914366        0.0000453902       -0.0000034259
 Pt         0.0000527861        0.0000819770       -0.0000322152
 Pt         0.0000926562        0.0000520774       -0.0000733355
 Pt         0.0001074317       -0.0000073524       -0.0000390764
 Pt         0.0001299502        0.0000003849       -0.0000152968
 Pt         0.0000271520        0.0000278350       -0.0000770121
 Pt         0.0000214075        0.0000676903       -0.0000328943
 Pt        -0.0000073813        0.0000269065       -0.0001432904
 Pt         0.0000059906        0.0000114652       -0.0001047326
 Ni        -0.0000732482       -0.0001259458       -0.0001055694
 Ni         0.0000012963       -0.0001883269       -0.0001768425
 Ni         0.0000437720       -0.0000404766       -0.0001500781
 Ni        -0.0000958142        0.0000485350       -0.0000513881
 Pt         0.0001889195       -0.0000170544        0.0000479847
 Pt         0.0000711102        0.0000708320       -0.0000525472
 Ni        -0.0000010307        0.0000039892       -0.0000167791
 Ni        -0.0002075939        0.0003749266       -0.0000024660
 Pt         0.0001838633        0.0001148505        0.0000865420
 Pt        -0.0001551091        0.0000618184       -0.0000995811
 Pt         0.0000920618       -0.0000399240       -0.0000155944
 Pt        -0.0002133732        0.0000380422       -0.0000670493
 Pt         0.0000367637        0.0000648258       -0.0000219447
 Pt        -0.0000245771        0.0001115060       -0.0000868123
 Ni        -0.0000631056       -0.0001701619       -0.0001486685
 Pt         0.0000089749        0.0000781243       -0.0001102752
 Pt        -0.0000148464        0.0000233273       -0.0000348088
 Pt         0.0000127886       -0.0000290653       -0.0000247901
 Ni        -0.0000973440        0.0004050616       -0.0001257341
 Pt        -0.0000246285       -0.0000842496       -0.0000085102
 Ni        -0.0002106039        0.0002303627       -0.0001542673
 Pt         0.0000578477        0.0000244132       -0.0000480631
 Pt         0.0000030271        0.0000737651       -0.0001020750