 DBCSR| CPU Multiplication driver                                           XSMM (U)
 DBCSR| Multrec recursion limit                                              512 (U)
 DBCSR| Multiplication stack size                                           1000 (D)
 DBCSR| Maximum elements for images                                    UNLIMITED (U)
 DBCSR| Multiplicative factor virtual images                                   1 (U)
 DBCSR| Use multiplication densification                                       T (D)
 DBCSR| Multiplication size stacks                                             3 (U)
 DBCSR| Use memory pool for CPU allocation                                     F (U)
 DBCSR| Number of 3D layers                                               SINGLE (U)
 DBCSR| Use MPI memory allocation                                              F (U)
 DBCSR| Use RMA algorithm                                                      F (U)
 DBCSR| Use Communication thread                                               T (U)
 DBCSR| Communication thread load                                             87 (D)
 DBCSR| MPI: My process id                                                     0
 DBCSR| MPI: Number of processes                                             128
 DBCSR| OMP: Current number of threads                                         1
 DBCSR| OMP: Max number of threads                                             1
 DBCSR| Split modifier for TAS multiplication algorithm                  1.0E+00 (U)


  **** **** ******  **  PROGRAM STARTED AT               2023-02-15 11:19:03.528
 ***** ** ***  *** **   PROGRAM STARTED ON                             nid003880
 **    ****   ******    PROGRAM STARTED BY                                cahart
 ***** **    ** ** **   PROGRAM PROCESS ID                                101516
  **** **  *******  **  PROGRAM STARTED IN /mnt/lustre/a2fs-work2/work/e05/e05/c
                                           ahart/postdoc/masters/ni/archer2/slab
                                           /optimise/magnetisation/scf_1e-4_temp
                                           -2000_mos-1000_alpha-0.08_beta-1.5_pe
                                           riodic-xyz/search/0.34_0.5

 CP2K| version string:                 CP2K version 2023.1 (Development Version)
 CP2K| source code revision number:                                  git:964cd58
 CP2K| cp2kflags: omp libint fftw3 libxc elpa parallel scalapack xsmm plumed2 mk
 CP2K|            l
 CP2K| is freely available from                            https://www.cp2k.org/
 CP2K| Program compiled at                          Mon 13 Feb 17:05:14 GMT 2023
 CP2K| Program compiled on                                                  ln01
 CP2K| Program compiled for                                              ARCHER2
 CP2K| Data directory path    /work/e05/e05/cahart/cp2k/cp2k-2023.1/cp2k-2023.1-
 CP2K| Input file name                                                  cp2k.inp

 GLOBAL| Force Environment number                                              1
 GLOBAL| Basis set file name                                        BASIS_MOLOPT
 GLOBAL| Potential file name                                      GTH_POTENTIALS
 GLOBAL| MM Potential file name                                     MM_POTENTIAL
 GLOBAL| Coordinate file name                                      __STD_INPUT__
 GLOBAL| Method name                                                        CP2K
 GLOBAL| Project name                                                    Ni_bulk
 GLOBAL| Run type                                                         ENERGY
 GLOBAL| FFT library                                                       FFTW3
 GLOBAL| Diagonalization library                                            ELPA
 GLOBAL| DGEMM library                                                      BLAS
 GLOBAL| Minimum number of eigenvectors for ELPA usage                        16
 GLOBAL| Orthonormality check for eigenvectors                          DISABLED
 GLOBAL| Matrix multiplication library                                 ScaLAPACK
 GLOBAL| All-to-all communication in single precision                          F
 GLOBAL| FFTs using library dependent lengths                                  F
 GLOBAL| Grid backend                                                       AUTO
 GLOBAL| Global print level                                               MEDIUM
 GLOBAL| MPI I/O enabled                                                       T
 GLOBAL| Total number of message passing processes                           128
 GLOBAL| Number of threads for this process                                    1
 GLOBAL| This output is from process                                           0
 GLOBAL| Stack size for threads created by OpenMP (OMP_STACKSIZE)        default
 GLOBAL| CPU model name                          AMD EPYC 7742 64-Core Processor
 GLOBAL| CPUID                                                              1002

 MEMORY| system memory details [Kb]
 MEMORY|                        rank 0           min           max       average
 MEMORY| MemTotal            263528088     263528088     263528088     263528088
 MEMORY| MemFree             239319504     239319504     239319504     239319504
 MEMORY| Buffers                 29468         29468         29468         29468
 MEMORY| Cached                 613868        613868        613868        613868
 MEMORY| Slab                  1529332       1529332       1529332       1529332
 MEMORY| SReclaimable           100796        100796        100796        100796
 MEMORY| MemLikelyFree       240063636     240063636     240063636     240063636


 *** Fundamental physical constants (SI units) ***

 *** Literature: B. J. Mohr and B. N. Taylor,
 ***             CODATA recommended values of the fundamental physical
 ***             constants: 2006, Web Version 5.1
 ***             http://physics.nist.gov/constants

 Speed of light in vacuum [m/s]                             2.99792458000000E+08
 Magnetic constant or permeability of vacuum [N/A**2]       1.25663706143592E-06
 Electric constant or permittivity of vacuum [F/m]          8.85418781762039E-12
 Planck constant (h) [J*s]                                  6.62606896000000E-34
 Planck constant (h-bar) [J*s]                              1.05457162825177E-34
 Elementary charge [C]                                      1.60217648700000E-19
 Electron mass [kg]                                         9.10938215000000E-31
 Electron g factor [ ]                                     -2.00231930436220E+00
 Proton mass [kg]                                           1.67262163700000E-27
 Fine-structure constant                                    7.29735253760000E-03
 Rydberg constant [1/m]                                     1.09737315685270E+07
 Avogadro constant [1/mol]                                  6.02214179000000E+23
 Boltzmann constant [J/K]                                   1.38065040000000E-23
 Atomic mass unit [kg]                                      1.66053878200000E-27
 Bohr radius [m]                                            5.29177208590000E-11

 *** Conversion factors ***

 [u] -> [a.u.]                                              1.82288848426455E+03
 [Angstrom] -> [Bohr] = [a.u.]                              1.88972613288564E+00
 [a.u.] = [Bohr] -> [Angstrom]                              5.29177208590000E-01
 [a.u.] -> [s]                                              2.41888432650478E-17
 [a.u.] -> [fs]                                             2.41888432650478E-02
 [a.u.] -> [J]                                              4.35974393937059E-18
 [a.u.] -> [N]                                              8.23872205491840E-08
 [a.u.] -> [K]                                              3.15774647902944E+05
 [a.u.] -> [kJ/mol]                                         2.62549961709828E+03
 [a.u.] -> [kcal/mol]                                       6.27509468713739E+02
 [a.u.] -> [Pa]                                             2.94210107994716E+13
 [a.u.] -> [bar]                                            2.94210107994716E+08
 [a.u.] -> [atm]                                            2.90362800883016E+08
 [a.u.] -> [eV]                                             2.72113838565563E+01
 [a.u.] -> [Hz]                                             6.57968392072181E+15
 [a.u.] -> [1/cm] (wave numbers)                            2.19474631370540E+05
 [a.u./Bohr**2] -> [1/cm]                                   5.14048714338585E+03
 

 CELL_TOP| Volume [angstrom^3]:                                       983.249569
 CELL_TOP| Vector a [angstrom     7.012     0.000     0.000   |a| =     7.011596
 CELL_TOP| Vector b [angstrom     0.000     7.012     0.000   |b| =     7.011596
 CELL_TOP| Vector c [angstrom     0.000     0.000    20.000   |c| =    20.000000
 CELL_TOP| Angle (b,c), alpha [degree]:                                90.000000
 CELL_TOP| Angle (a,c), beta  [degree]:                                90.000000
 CELL_TOP| Angle (a,b), gamma [degree]:                                90.000000
 CELL_TOP| Numerically orthorhombic:                                         YES
 CELL_TOP| Periodicity                                                       XYZ

 GENERATE|  Preliminary Number of Bonds generated:                             0
 GENERATE|  Achieved consistency in connectivity generation.

 CELL| Volume [angstrom^3]:                                           983.249569
 CELL| Vector a [angstrom]:       7.012     0.000     0.000   |a| =     7.011596
 CELL| Vector b [angstrom]:       0.000     7.012     0.000   |b| =     7.011596
 CELL| Vector c [angstrom]:       0.000     0.000    20.000   |c| =    20.000000
 CELL| Angle (b,c), alpha [degree]:                                    90.000000
 CELL| Angle (a,c), beta  [degree]:                                    90.000000
 CELL| Angle (a,b), gamma [degree]:                                    90.000000
 CELL| Numerically orthorhombic:                                             YES
 CELL| Periodicity                                                           XYZ

 CELL_REF| Volume [angstrom^3]:                                       983.249569
 CELL_REF| Vector a [angstrom     7.012     0.000     0.000   |a| =     7.011596
 CELL_REF| Vector b [angstrom     0.000     7.012     0.000   |b| =     7.011596
 CELL_REF| Vector c [angstrom     0.000     0.000    20.000   |c| =    20.000000
 CELL_REF| Angle (b,c), alpha [degree]:                                90.000000
 CELL_REF| Angle (a,c), beta  [degree]:                                90.000000
 CELL_REF| Angle (a,b), gamma [degree]:                                90.000000
 CELL_REF| Numerically orthorhombic:                                         YES
 CELL_REF| Periodicity                                                       XYZ

 *** WARNING in cryssym.F:165 :: Symmetry library SPGLIB not available ***


 *******************************************************************************
                                    Kpoints
 *******************************************************************************
 BRILLOUIN| K-point scheme                                        Monkhorst-Pack
 BRILLOUIN| K-Point grid                                             4    4    1
 BRILLOUIN| Accuracy in Symmetry determination                      0.100000E-05
 BRILLOUIN| K-Point point group symmetrization                               OFF
 BRILLOUIN| Wavefunction type                                            COMPLEX
 BRILLOUIN| List of Kpoints [2 Pi/Bohr]                                        8
 BRILLOUIN| Number           Weight            X              Y              Z
 BRILLOUIN|     1           0.12500       -0.37500       -0.37500        0.00000
 BRILLOUIN|     2           0.12500       -0.37500       -0.12500        0.00000
 BRILLOUIN|     3           0.12500       -0.37500        0.12500        0.00000
 BRILLOUIN|     4           0.12500       -0.37500        0.37500        0.00000
 BRILLOUIN|     5           0.12500       -0.12500       -0.37500        0.00000
 BRILLOUIN|     6           0.12500       -0.12500       -0.12500        0.00000
 BRILLOUIN|     7           0.12500       -0.12500        0.12500        0.00000
 BRILLOUIN|     8           0.12500       -0.12500        0.37500        0.00000
 *******************************************************************************

 *******************************************************************************
 *******************************************************************************
 **                                                                           **
 **     #####                         ##              ##                      **
 **    ##   ##            ##          ##              ##                      **
 **   ##     ##                       ##            ######                    **
 **   ##     ##  ##   ##  ##   #####  ##  ##   ####   ##    #####    #####    **
 **   ##     ##  ##   ##  ##  ##      ## ##   ##      ##   ##   ##  ##   ##   **
 **   ##  ## ##  ##   ##  ##  ##      ####     ###    ##   ######   ######    **
 **    ##  ###   ##   ##  ##  ##      ## ##      ##   ##   ##       ##        **
 **     #######   #####   ##   #####  ##  ##  ####    ##    #####   ##        **
 **           ##                                                    ##        **
 **                                                                           **
 **                                                ... make the atoms dance   **
 **                                                                           **
 **            Copyright (C) by CP2K developers group (2000-2023)             **
 **                      J. Chem. Phys. 152, 194103 (2020)                    **
 **                                                                           **
 *******************************************************************************

 *** WARNING in qs_environment.F:1456 :: Number of electrons will be ***
 *** overwritten by NELEC_ALPHA and NELEC_BETA, multiplicity will be ***
 *** ignored.                                                        ***

 Number of electrons should be                                               576
 Sum of NELEC_ALPHA and NELEC_BETA is                                    576.000

 *** WARNING in qs_environment.F:1488 :: NELEC_ALPHA is not an integer, ***
 *** many features will not be supported.                               ***


 *** WARNING in qs_environment.F:1500 :: NELEC_BETA is not an integer, ***
 *** many features will not be supported.                              ***


 *** WARNING in qs_environment.F:1532 :: More ADDED_MOs requested for beta ***
 *** spin than available.                                                  ***


 *** WARNING in qs_environment.F:1548 :: More added MOs requested than     ***
 *** available. The full set of unoccupied MOs will be used. Use           ***
 *** 'ADDED_MOS -1' to always use all available MOs and to get rid of this ***
 *** warning.                                                              ***


 DFT| Spin unrestricted (spin-polarized) Kohn-Sham calculation               UKS
 DFT| Multiplicity                                                             1
 DFT| Number of spin states                                                    2
 DFT| Charge                                                                   0
 DFT| Self-interaction correction (SIC)                                       NO
 DFT| Cutoffs: density                                              1.000000E-10
 DFT|          gradient                                             1.000000E-10
 DFT|          tau                                                  1.000000E-10
 DFT|          cutoff_smoothing_range                               0.000000E+00
 DFT| XC density smoothing                                                  NONE
 DFT| XC derivatives                                                          PW

 FUNCTIONAL| PBE:
 FUNCTIONAL| J.P.Perdew, K.Burke, M.Ernzerhof, Phys. Rev. Letter, vol. 77, n 18,
 FUNCTIONAL|  pp. 3865-3868, (1996){spin polarized}                             

 vdW POTENTIAL|                                                   Pair Potential
 vdW POTENTIAL|          DFT-D3 (Version 3.1)
 vdW POTENTIAL|          Potential Form: S. Grimme et al, JCP 132: 154104 (2010)
 vdW POTENTIAL|          Zero Damping
 vdW POTENTIAL|          Cutoff Radius [Bohr]:                             20.00
 vdW POTENTIAL|          s6 Scaling Factor:                               1.0000
 vdW POTENTIAL|          sr6 Scaling Factor:                              1.2170
 vdW POTENTIAL|          s8 Scaling Factor:                               0.7220
 vdW POTENTIAL|          Cutoff for CN calculation:                   0.1000E-05

 QS| Method:                                                                 GPW
 QS| Density plane wave grid type                        NON-SPHERICAL FULLSPACE
 QS| Number of grid levels:                                                    5
 QS| Density cutoff [a.u.]:                                                300.0
 QS| Multi grid cutoff [a.u.]: 1) grid level                               300.0
 QS|                           2) grid level                               100.0
 QS|                           3) grid level                                33.3
 QS|                           4) grid level                                11.1
 QS|                           5) grid level                                 3.7
 QS| Grid level progression factor:                                          3.0
 QS| Relative density cutoff [a.u.]:                                        30.0
 QS| Interaction thresholds: eps_pgf_orb:                                1.0E-06
 QS|                         eps_filter_matrix:                          0.0E+00
 QS|                         eps_core_charge:                            1.0E-14
 QS|                         eps_rho_gspace:                             1.0E-12
 QS|                         eps_rho_rspace:                             1.0E-12
 QS|                         eps_gvg_rspace:                             1.0E-06
 QS|                         eps_ppl:                                    1.0E-02
 QS|                         eps_ppnl:                                   1.0E-08


 ATOMIC KIND INFORMATION

  1. Atomic kind: Ni_i                                  Number of atoms:      16

     Orbital Basis Set                                        DZVP-MOLOPT-SR-GTH

       Number of orbital shell sets:                                           1
       Number of orbital shells:                                               8
       Number of primitive Cartesian functions:                                6
       Number of Cartesian basis functions:                                   31
       Number of spherical basis functions:                                   26
       Norm type:                                                              2

       Normalised Cartesian orbitals:

                        Set   Shell   Orbital            Exponent    Coefficient

                          1       1    2s               10.077428      -0.684558
                                                         5.847736      -0.844524
                                                         2.494033       1.088856
                                                         0.988355       0.395503
                                                         0.344978       0.010224
                                                         0.099466      -0.003250

                          1       2    3s               10.077428       0.096747
                                                         5.847736       0.162504
                                                         2.494033      -0.297192
                                                         0.988355      -0.319752
                                                         0.344978       0.088318
                                                         0.099466       0.118587

                          1       3    4s               10.077428       0.036437
                                                         5.847736      -0.381480
                                                         2.494033       0.003759
                                                         0.988355      -1.048256
                                                         0.344978       0.855825
                                                         0.099466      -0.176350

                          1       4    3px              10.077428      -3.133913
                                                         5.847736       3.027656
                                                         2.494033       2.353227
                                                         0.988355       0.554184
                                                         0.344978       0.019462
                                                         0.099466      -0.000291
                          1       4    3py              10.077428      -3.133913
                                                         5.847736       3.027656
                                                         2.494033       2.353227
                                                         0.988355       0.554184
                                                         0.344978       0.019462
                                                         0.099466      -0.000291
                          1       4    3pz              10.077428      -3.133913
                                                         5.847736       3.027656
                                                         2.494033       2.353227
                                                         0.988355       0.554184
                                                         0.344978       0.019462
                                                         0.099466      -0.000291

                          1       5    4px              10.077428      -0.112729
                                                         5.847736      -0.114008
                                                         2.494033      -0.347303
                                                         0.988355      -0.110323
                                                         0.344978       0.154096
                                                         0.099466       0.058386
                          1       5    4py              10.077428      -0.112729
                                                         5.847736      -0.114008
                                                         2.494033      -0.347303
                                                         0.988355      -0.110323
                                                         0.344978       0.154096
                                                         0.099466       0.058386
                          1       5    4pz              10.077428      -0.112729
                                                         5.847736      -0.114008
                                                         2.494033      -0.347303
                                                         0.988355      -0.110323
                                                         0.344978       0.154096
                                                         0.099466       0.058386

                          1       6    4dx2             10.077428       8.232726
                                                         5.847736       9.105758
                                                         2.494033       2.849835
                                                         0.988355       0.554319
                                                         0.344978       0.067245
                                                         0.099466       0.001940
                          1       6    4dxy             10.077428      14.259500
                                                         5.847736      15.771636
                                                         2.494033       4.936060
                                                         0.988355       0.960109
                                                         0.344978       0.116472
                                                         0.099466       0.003360
                          1       6    4dxz             10.077428      14.259500
                                                         5.847736      15.771636
                                                         2.494033       4.936060
                                                         0.988355       0.960109
                                                         0.344978       0.116472
                                                         0.099466       0.003360
                          1       6    4dy2             10.077428       8.232726
                                                         5.847736       9.105758
                                                         2.494033       2.849835
                                                         0.988355       0.554319
                                                         0.344978       0.067245
                                                         0.099466       0.001940
                          1       6    4dyz             10.077428      14.259500
                                                         5.847736      15.771636
                                                         2.494033       4.936060
                                                         0.988355       0.960109
                                                         0.344978       0.116472
                                                         0.099466       0.003360
                          1       6    4dz2             10.077428       8.232726
                                                         5.847736       9.105758
                                                         2.494033       2.849835
                                                         0.988355       0.554319
                                                         0.344978       0.067245
                                                         0.099466       0.001940

                          1       7    5dx2             10.077428      -2.715373
                                                         5.847736      -4.020640
                                                         2.494033      -1.397569
                                                         0.988355      -0.076143
                                                         0.344978       0.033435
                                                         0.099466       0.026032
                          1       7    5dxy             10.077428      -4.703164
                                                         5.847736      -6.963952
                                                         2.494033      -2.420661
                                                         0.988355      -0.131883
                                                         0.344978       0.057911
                                                         0.099466       0.045088
                          1       7    5dxz             10.077428      -4.703164
                                                         5.847736      -6.963952
                                                         2.494033      -2.420661
                                                         0.988355      -0.131883
                                                         0.344978       0.057911
                                                         0.099466       0.045088
                          1       7    5dy2             10.077428      -2.715373
                                                         5.847736      -4.020640
                                                         2.494033      -1.397569
                                                         0.988355      -0.076143
                                                         0.344978       0.033435
                                                         0.099466       0.026032
                          1       7    5dyz             10.077428      -4.703164
                                                         5.847736      -6.963952
                                                         2.494033      -2.420661
                                                         0.988355      -0.131883
                                                         0.344978       0.057911
                                                         0.099466       0.045088
                          1       7    5dz2             10.077428      -2.715373
                                                         5.847736      -4.020640
                                                         2.494033      -1.397569
                                                         0.988355      -0.076143
                                                         0.344978       0.033435
                                                         0.099466       0.026032

                          1       8    5fx3             10.077428      -0.467694
                                                         5.847736       0.618100
                                                         2.494033       0.066069
                                                         0.988355       0.262898
                                                         0.344978       0.004720
                                                         0.099466       0.007748
                          1       8    5fx2y            10.077428      -1.045795
                                                         5.847736       1.382114
                                                         2.494033       0.147734
                                                         0.988355       0.587859
                                                         0.344978       0.010555
                                                         0.099466       0.017325
                          1       8    5fx2z            10.077428      -1.045795
                                                         5.847736       1.382114
                                                         2.494033       0.147734
                                                         0.988355       0.587859
                                                         0.344978       0.010555
                                                         0.099466       0.017325
                          1       8    5fxy2            10.077428      -1.045795
                                                         5.847736       1.382114
                                                         2.494033       0.147734
                                                         0.988355       0.587859
                                                         0.344978       0.010555
                                                         0.099466       0.017325
                          1       8    5fxyz            10.077428      -1.811371
                                                         5.847736       2.393892
                                                         2.494033       0.255883
                                                         0.988355       1.018201
                                                         0.344978       0.018282
                                                         0.099466       0.030008
                          1       8    5fxz2            10.077428      -1.045795
                                                         5.847736       1.382114
                                                         2.494033       0.147734
                                                         0.988355       0.587859
                                                         0.344978       0.010555
                                                         0.099466       0.017325
                          1       8    5fy3             10.077428      -0.467694
                                                         5.847736       0.618100
                                                         2.494033       0.066069
                                                         0.988355       0.262898
                                                         0.344978       0.004720
                                                         0.099466       0.007748
                          1       8    5fy2z            10.077428      -1.045795
                                                         5.847736       1.382114
                                                         2.494033       0.147734
                                                         0.988355       0.587859
                                                         0.344978       0.010555
                                                         0.099466       0.017325
                          1       8    5fyz2            10.077428      -1.045795
                                                         5.847736       1.382114
                                                         2.494033       0.147734
                                                         0.988355       0.587859
                                                         0.344978       0.010555
                                                         0.099466       0.017325
                          1       8    5fz3             10.077428      -0.467694
                                                         5.847736       0.618100
                                                         2.494033       0.066069
                                                         0.988355       0.262898
                                                         0.344978       0.004720
                                                         0.099466       0.007748

       Atomic covalent radius [Angstrom]:                                  1.150

       Atomic van der Waals radius [Angstrom]:                             1.630

     GTH Potential information for                                   GTH-PBE-q18

       Description:                       Goedecker-Teter-Hutter pseudopotential
                                           Goedecker et al., PRB 54, 1703 (1996)
                                          Hartwigsen et al., PRB 58, 3641 (1998)
                                                      Krack, TCA 114, 145 (2005)

       Gaussian exponent of the core charge distribution:               4.081633
       Electronic configuration (s p d ...):                           4   6   8

       Parameters of the local part of the GTH pseudopotential:

                          rloc        C1          C2          C3          C4
                        0.350000    2.102166    0.648484

       Parameters of the non-local part of the GTH pseudopotential:

                   l      r(l)      h(i,j,l)

                   0    0.261295    0.622658    9.970227
                                    9.970227  -12.871507
                   1    0.224253  -11.142708   12.429566
                                   12.429566  -14.706861
                   2    0.215348  -12.628146

  2. Atomic kind: Ni_b                                  Number of atoms:      16

     Orbital Basis Set                                        DZVP-MOLOPT-SR-GTH

       Number of orbital shell sets:                                           1
       Number of orbital shells:                                               8
       Number of primitive Cartesian functions:                                6
       Number of Cartesian basis functions:                                   31
       Number of spherical basis functions:                                   26
       Norm type:                                                              2

       Normalised Cartesian orbitals:

                        Set   Shell   Orbital            Exponent    Coefficient

                          1       1    2s               10.077428      -0.684558
                                                         5.847736      -0.844524
                                                         2.494033       1.088856
                                                         0.988355       0.395503
                                                         0.344978       0.010224
                                                         0.099466      -0.003250

                          1       2    3s               10.077428       0.096747
                                                         5.847736       0.162504
                                                         2.494033      -0.297192
                                                         0.988355      -0.319752
                                                         0.344978       0.088318
                                                         0.099466       0.118587

                          1       3    4s               10.077428       0.036437
                                                         5.847736      -0.381480
                                                         2.494033       0.003759
                                                         0.988355      -1.048256
                                                         0.344978       0.855825
                                                         0.099466      -0.176350

                          1       4    3px              10.077428      -3.133913
                                                         5.847736       3.027656
                                                         2.494033       2.353227
                                                         0.988355       0.554184
                                                         0.344978       0.019462
                                                         0.099466      -0.000291
                          1       4    3py              10.077428      -3.133913
                                                         5.847736       3.027656
                                                         2.494033       2.353227
                                                         0.988355       0.554184
                                                         0.344978       0.019462
                                                         0.099466      -0.000291
                          1       4    3pz              10.077428      -3.133913
                                                         5.847736       3.027656
                                                         2.494033       2.353227
                                                         0.988355       0.554184
                                                         0.344978       0.019462
                                                         0.099466      -0.000291

                          1       5    4px              10.077428      -0.112729
                                                         5.847736      -0.114008
                                                         2.494033      -0.347303
                                                         0.988355      -0.110323
                                                         0.344978       0.154096
                                                         0.099466       0.058386
                          1       5    4py              10.077428      -0.112729
                                                         5.847736      -0.114008
                                                         2.494033      -0.347303
                                                         0.988355      -0.110323
                                                         0.344978       0.154096
                                                         0.099466       0.058386
                          1       5    4pz              10.077428      -0.112729
                                                         5.847736      -0.114008
                                                         2.494033      -0.347303
                                                         0.988355      -0.110323
                                                         0.344978       0.154096
                                                         0.099466       0.058386

                          1       6    4dx2             10.077428       8.232726
                                                         5.847736       9.105758
                                                         2.494033       2.849835
                                                         0.988355       0.554319
                                                         0.344978       0.067245
                                                         0.099466       0.001940
                          1       6    4dxy             10.077428      14.259500
                                                         5.847736      15.771636
                                                         2.494033       4.936060
                                                         0.988355       0.960109
                                                         0.344978       0.116472
                                                         0.099466       0.003360
                          1       6    4dxz             10.077428      14.259500
                                                         5.847736      15.771636
                                                         2.494033       4.936060
                                                         0.988355       0.960109
                                                         0.344978       0.116472
                                                         0.099466       0.003360
                          1       6    4dy2             10.077428       8.232726
                                                         5.847736       9.105758
                                                         2.494033       2.849835
                                                         0.988355       0.554319
                                                         0.344978       0.067245
                                                         0.099466       0.001940
                          1       6    4dyz             10.077428      14.259500
                                                         5.847736      15.771636
                                                         2.494033       4.936060
                                                         0.988355       0.960109
                                                         0.344978       0.116472
                                                         0.099466       0.003360
                          1       6    4dz2             10.077428       8.232726
                                                         5.847736       9.105758
                                                         2.494033       2.849835
                                                         0.988355       0.554319
                                                         0.344978       0.067245
                                                         0.099466       0.001940

                          1       7    5dx2             10.077428      -2.715373
                                                         5.847736      -4.020640
                                                         2.494033      -1.397569
                                                         0.988355      -0.076143
                                                         0.344978       0.033435
                                                         0.099466       0.026032
                          1       7    5dxy             10.077428      -4.703164
                                                         5.847736      -6.963952
                                                         2.494033      -2.420661
                                                         0.988355      -0.131883
                                                         0.344978       0.057911
                                                         0.099466       0.045088
                          1       7    5dxz             10.077428      -4.703164
                                                         5.847736      -6.963952
                                                         2.494033      -2.420661
                                                         0.988355      -0.131883
                                                         0.344978       0.057911
                                                         0.099466       0.045088
                          1       7    5dy2             10.077428      -2.715373
                                                         5.847736      -4.020640
                                                         2.494033      -1.397569
                                                         0.988355      -0.076143
                                                         0.344978       0.033435
                                                         0.099466       0.026032
                          1       7    5dyz             10.077428      -4.703164
                                                         5.847736      -6.963952
                                                         2.494033      -2.420661
                                                         0.988355      -0.131883
                                                         0.344978       0.057911
                                                         0.099466       0.045088
                          1       7    5dz2             10.077428      -2.715373
                                                         5.847736      -4.020640
                                                         2.494033      -1.397569
                                                         0.988355      -0.076143
                                                         0.344978       0.033435
                                                         0.099466       0.026032

                          1       8    5fx3             10.077428      -0.467694
                                                         5.847736       0.618100
                                                         2.494033       0.066069
                                                         0.988355       0.262898
                                                         0.344978       0.004720
                                                         0.099466       0.007748
                          1       8    5fx2y            10.077428      -1.045795
                                                         5.847736       1.382114
                                                         2.494033       0.147734
                                                         0.988355       0.587859
                                                         0.344978       0.010555
                                                         0.099466       0.017325
                          1       8    5fx2z            10.077428      -1.045795
                                                         5.847736       1.382114
                                                         2.494033       0.147734
                                                         0.988355       0.587859
                                                         0.344978       0.010555
                                                         0.099466       0.017325
                          1       8    5fxy2            10.077428      -1.045795
                                                         5.847736       1.382114
                                                         2.494033       0.147734
                                                         0.988355       0.587859
                                                         0.344978       0.010555
                                                         0.099466       0.017325
                          1       8    5fxyz            10.077428      -1.811371
                                                         5.847736       2.393892
                                                         2.494033       0.255883
                                                         0.988355       1.018201
                                                         0.344978       0.018282
                                                         0.099466       0.030008
                          1       8    5fxz2            10.077428      -1.045795
                                                         5.847736       1.382114
                                                         2.494033       0.147734
                                                         0.988355       0.587859
                                                         0.344978       0.010555
                                                         0.099466       0.017325
                          1       8    5fy3             10.077428      -0.467694
                                                         5.847736       0.618100
                                                         2.494033       0.066069
                                                         0.988355       0.262898
                                                         0.344978       0.004720
                                                         0.099466       0.007748
                          1       8    5fy2z            10.077428      -1.045795
                                                         5.847736       1.382114
                                                         2.494033       0.147734
                                                         0.988355       0.587859
                                                         0.344978       0.010555
                                                         0.099466       0.017325
                          1       8    5fyz2            10.077428      -1.045795
                                                         5.847736       1.382114
                                                         2.494033       0.147734
                                                         0.988355       0.587859
                                                         0.344978       0.010555
                                                         0.099466       0.017325
                          1       8    5fz3             10.077428      -0.467694
                                                         5.847736       0.618100
                                                         2.494033       0.066069
                                                         0.988355       0.262898
                                                         0.344978       0.004720
                                                         0.099466       0.007748

       Atomic covalent radius [Angstrom]:                                  1.150

       Atomic van der Waals radius [Angstrom]:                             1.630

     GTH Potential information for                                   GTH-PBE-q18

       Description:                       Goedecker-Teter-Hutter pseudopotential
                                           Goedecker et al., PRB 54, 1703 (1996)
                                          Hartwigsen et al., PRB 58, 3641 (1998)
                                                      Krack, TCA 114, 145 (2005)

       Gaussian exponent of the core charge distribution:               4.081633
       Electronic configuration (s p d ...):                           4   6   8

       Parameters of the local part of the GTH pseudopotential:

                          rloc        C1          C2          C3          C4
                        0.350000    2.102166    0.648484

       Parameters of the non-local part of the GTH pseudopotential:

                   l      r(l)      h(i,j,l)

                   0    0.261295    0.622658    9.970227
                                    9.970227  -12.871507
                   1    0.224253  -11.142708   12.429566
                                   12.429566  -14.706861
                   2    0.215348  -12.628146


 MOLECULE KIND INFORMATION


 All atoms are their own molecule, skipping detailed information


 TOTAL NUMBERS AND MAXIMUM NUMBERS

  Total number of            - Atomic kinds:                                   2
                             - Atoms:                                         32
                             - Shell sets:                                    32
                             - Shells:                                       256
                             - Primitive Cartesian functions:                192
                             - Cartesian basis functions:                    992
                             - Spherical basis functions:                    832

  Maximum angular momentum of- Orbital basis functions:                        3
                             - Local part of the GTH pseudopotential:          2
                             - Non-local part of the GTH pseudopotential:      3


 MODULE QUICKSTEP: ATOMIC COORDINATES IN ANGSTROM

   Atom Kind Element         X             Y             Z       Z(eff)     Mass
      1    1 Ni   28      0.876298      0.876298      7.370500  18.0000  58.6934
      2    1 Ni   28      0.876298      4.382298      7.370500  18.0000  58.6934
      3    1 Ni   28      2.629298      2.629298      7.370500  18.0000  58.6934
      4    1 Ni   28      2.629298      6.135298      7.370500  18.0000  58.6934
      5    1 Ni   28      4.382298      0.876298      7.370500  18.0000  58.6934
      6    1 Ni   28      4.382298      4.382298      7.370500  18.0000  58.6934
      7    1 Ni   28      6.135298      2.629298      7.370500  18.0000  58.6934
      8    1 Ni   28      6.135298      6.135298      7.370500  18.0000  58.6934
      9    2 Ni   28      0.876298      2.629298      9.123500  18.0000  58.6934
     10    2 Ni   28      0.876298      6.135298      9.123500  18.0000  58.6934
     11    2 Ni   28      2.629298      0.876298      9.123500  18.0000  58.6934
     12    2 Ni   28      2.629298      4.382298      9.123500  18.0000  58.6934
     13    2 Ni   28      4.382298      2.629298      9.123500  18.0000  58.6934
     14    2 Ni   28      4.382298      6.135298      9.123500  18.0000  58.6934
     15    2 Ni   28      6.135298      0.876298      9.123500  18.0000  58.6934
     16    2 Ni   28      6.135298      4.382298      9.123500  18.0000  58.6934
     17    2 Ni   28      0.876298      0.876298     10.876500  18.0000  58.6934
     18    2 Ni   28      0.876298      4.382298     10.876500  18.0000  58.6934
     19    2 Ni   28      2.629298      2.629298     10.876500  18.0000  58.6934
     20    2 Ni   28      2.629298      6.135298     10.876500  18.0000  58.6934
     21    2 Ni   28      4.382298      0.876298     10.876500  18.0000  58.6934
     22    2 Ni   28      4.382298      4.382298     10.876500  18.0000  58.6934
     23    2 Ni   28      6.135298      2.629298     10.876500  18.0000  58.6934
     24    2 Ni   28      6.135298      6.135298     10.876500  18.0000  58.6934
     25    1 Ni   28      0.876298      2.629298     12.629500  18.0000  58.6934
     26    1 Ni   28      0.876298      6.135298     12.629500  18.0000  58.6934
     27    1 Ni   28      2.629298      0.876298     12.629500  18.0000  58.6934
     28    1 Ni   28      2.629298      4.382298     12.629500  18.0000  58.6934
     29    1 Ni   28      4.382298      2.629298     12.629500  18.0000  58.6934
     30    1 Ni   28      4.382298      6.135298     12.629500  18.0000  58.6934
     31    1 Ni   28      6.135298      0.876298     12.629500  18.0000  58.6934
     32    1 Ni   28      6.135298      4.382298     12.629500  18.0000  58.6934



 SCF PARAMETERS         Density guess:                                    ATOMIC
                        --------------------------------------------------------
                        max_scf:                                             500
                        max_scf_history:                                       0
                        max_diis:                                              4
                        --------------------------------------------------------
                        eps_scf:                                        1.00E-04
                        eps_scf_history:                                0.00E+00
                        eps_diis:                                       1.00E-01
                        eps_eigval:                                     1.00E-05
                        --------------------------------------------------------
                        level_shift [a.u.]:                             0.000000
                        added MOs                                       537  550
                        --------------------------------------------------------
                        Mixing method:                            BROYDEN_MIXING
                                                charge density mixing in g-space
                        --------------------------------------------------------
                        Smear method:                                FERMI_DIRAC
                        Electronic temperature [K]:                       2000.0
                        Electronic temperature [a.u.]:                  6.33E-03
                        Accuracy threshold:                             1.00E-10
                        --------------------------------------------------------
                        No outer SCF

 PW_GRID| Information for grid number                                          1
 PW_GRID| Grid distributed over                                   128 processors
 PW_GRID| Real space group dimensions                                     8   16
 PW_GRID| the grid is blocked:                                               YES
 PW_GRID| Cutoff [a.u.]                                                    300.0
 PW_GRID| spherical cutoff:                                                   NO
 PW_GRID|   Bounds   1            -54      53                Points:         108
 PW_GRID|   Bounds   2            -54      53                Points:         108
 PW_GRID|   Bounds   3           -150     149                Points:         300
 PW_GRID| Volume element (a.u.^3)  0.1896E-02     Volume (a.u.^3)      6635.2971
 PW_GRID| Grid span                                                    FULLSPACE
 PW_GRID|   Distribution                         Average         Max         Min
 PW_GRID|   G-Vectors                            27337.5       28728       25272
 PW_GRID|   G-Rays                                 253.1         266         234
 PW_GRID|   Real Space Points                    27337.5       28728       25272

 PW_GRID| Information for grid number                                          2
 PW_GRID| Number of the reference grid                                         1
 PW_GRID| Grid distributed over                                   128 processors
 PW_GRID| Real space group dimensions                                     8   16
 PW_GRID| the grid is blocked:                                                NO
 PW_GRID| Cutoff [a.u.]                                                    100.0
 PW_GRID| spherical cutoff:                                                   NO
 PW_GRID|   Bounds   1            -30      29                Points:          60
 PW_GRID|   Bounds   2            -30      29                Points:          60
 PW_GRID|   Bounds   3            -90      89                Points:         180
 PW_GRID| Volume element (a.u.^3)  0.1024E-01     Volume (a.u.^3)      6635.2971
 PW_GRID| Grid span                                                    FULLSPACE
 PW_GRID|   Distribution                         Average         Max         Min
 PW_GRID|   G-Vectors                             5062.5       15960           0
 PW_GRID|   G-Rays                                  84.4         266           0
 PW_GRID|   Real Space Points                     5062.5        5760        3780

 PW_GRID| Information for grid number                                          3
 PW_GRID| Number of the reference grid                                         1
 PW_GRID| Grid distributed over                                   128 processors
 PW_GRID| Real space group dimensions                                     8   16
 PW_GRID| the grid is blocked:                                                NO
 PW_GRID| Cutoff [a.u.]                                                     33.3
 PW_GRID| spherical cutoff:                                                   NO
 PW_GRID|   Bounds   1            -18      17                Points:          36
 PW_GRID|   Bounds   2            -18      17                Points:          36
 PW_GRID|   Bounds   3            -50      49                Points:         100
 PW_GRID| Volume element (a.u.^3)  0.5120E-01     Volume (a.u.^3)      6635.2971
 PW_GRID| Grid span                                                    FULLSPACE
 PW_GRID|   Distribution                         Average         Max         Min
 PW_GRID|   G-Vectors                             1012.5        9576           0
 PW_GRID|   G-Rays                                  28.1         266           0
 PW_GRID|   Real Space Points                     1012.5        1500         800

 PW_GRID| Information for grid number                                          4
 PW_GRID| Number of the reference grid                                         1
 PW_GRID| Grid distributed over                                   128 processors
 PW_GRID| Real space group dimensions                                     8   16
 PW_GRID| the grid is blocked:                                                NO
 PW_GRID| Cutoff [a.u.]                                                     11.1
 PW_GRID| spherical cutoff:                                                   NO
 PW_GRID|   Bounds   1            -10       9                Points:          20
 PW_GRID|   Bounds   2            -10       9                Points:          20
 PW_GRID|   Bounds   3            -30      29                Points:          60
 PW_GRID| Volume element (a.u.^3)  0.2765         Volume (a.u.^3)      6635.2971
 PW_GRID| Grid span                                                    FULLSPACE
 PW_GRID|   Distribution                         Average         Max         Min
 PW_GRID|   G-Vectors                              187.5        3800           0
 PW_GRID|   G-Rays                                   9.4         190           0
 PW_GRID|   Real Space Points                      187.5         360         120

 PW_GRID| Information for grid number                                          5
 PW_GRID| Number of the reference grid                                         1
 PW_GRID| Grid distributed over                                   128 processors
 PW_GRID| Real space group dimensions                                     8   16
 PW_GRID| the grid is blocked:                                                NO
 PW_GRID| Cutoff [a.u.]                                                      3.7
 PW_GRID| spherical cutoff:                                                   NO
 PW_GRID|   Bounds   1             -6       5                Points:          12
 PW_GRID|   Bounds   2             -6       5                Points:          12
 PW_GRID|   Bounds   3            -18      17                Points:          36
 PW_GRID| Volume element (a.u.^3)   1.280         Volume (a.u.^3)      6635.2971
 PW_GRID| Grid span                                                    FULLSPACE
 PW_GRID|   Distribution                         Average         Max         Min
 PW_GRID|   G-Vectors                               40.5        1296           0
 PW_GRID|   G-Rays                                   3.4         108           0
 PW_GRID|   Real Space Points                       40.5          72           0

 POISSON| Solver                                                        PERIODIC
 POISSON| Periodicity                                                        XYZ

 RS_GRID| Information for grid number                                          1
 RS_GRID|   Bounds   1            -54      53                Points:         108
 RS_GRID|   Bounds   2            -54      53                Points:         108
 RS_GRID|   Bounds   3           -150     149                Points:         300
 RS_GRID| Real space distribution over                                  8 groups
 RS_GRID| Real space distribution along direction                              2
 RS_GRID| Border size                                                         28
 RS_GRID| Real space distribution over                                 16 groups
 RS_GRID| Real space distribution along direction                              3
 RS_GRID| Border size                                                         28
 RS_GRID|   Distribution                         Average         Max         Min
 RS_GRID|   Planes                                  69.5          70          69
 RS_GRID|   Distribution                         Average         Max         Min
 RS_GRID|   Planes                                  74.8          75          74

 RS_GRID| Information for grid number                                          2
 RS_GRID|   Bounds   1            -30      29                Points:          60
 RS_GRID|   Bounds   2            -30      29                Points:          60
 RS_GRID|   Bounds   3            -90      89                Points:         180
 RS_GRID| Real space fully replicated
 RS_GRID| Group size                                                           1

 RS_GRID| Information for grid number                                          3
 RS_GRID|   Bounds   1            -18      17                Points:          36
 RS_GRID|   Bounds   2            -18      17                Points:          36
 RS_GRID|   Bounds   3            -50      49                Points:         100
 RS_GRID| Real space fully replicated
 RS_GRID| Group size                                                           1

 RS_GRID| Information for grid number                                          4
 RS_GRID|   Bounds   1            -10       9                Points:          20
 RS_GRID|   Bounds   2            -10       9                Points:          20
 RS_GRID|   Bounds   3            -30      29                Points:          60
 RS_GRID| Real space fully replicated
 RS_GRID| Group size                                                           1

 RS_GRID| Information for grid number                                          5
 RS_GRID|   Bounds   1             -6       5                Points:          12
 RS_GRID|   Bounds   2             -6       5                Points:          12
 RS_GRID|   Bounds   3            -18      17                Points:          36
 RS_GRID| Real space fully replicated
 RS_GRID| Group size                                                           1

 Spin 1

 Number of electrons:                                                        294.720
 Number of occupied orbitals:                                                295
 Number of molecular orbitals:                                               832

 Spin 2

 Number of electrons:                                                        281.280
 Number of occupied orbitals:                                                282
 Number of molecular orbitals:                                               832

 Number of orbital functions:                                                832
 Number of independent orbital functions:                                    832

 Extrapolation method: initial_guess

 Atomic guess: The first density matrix is obtained in terms of atomic orbitals
               and electronic configurations assigned to each atomic kind

 Guess for atomic kind: Ni_i

 Electronic structure
    Total number of core electrons                                         10.00
    Total number of valence electrons                                      18.00
    Total number of electrons                                              28.00
    Multiplicity                                                         doublet
    Alpha Electrons
    S   [  1.00  1.00] 1.00  1.00
    P   [  3.00] 3.00
    D      4.25
    Beta Electrons
    S   [  1.00  1.00] 1.00  1.00
    P   [  3.00] 3.00
    D      3.75


 *******************************************************************************
                  Iteration          Convergence                     Energy [au]
 *******************************************************************************
                          1         1.51687                    -167.065012761055
                          2         14.9817                    -156.620431300845
                          3         2.25575                    -168.317311438693
                          4        0.189210                    -168.607926092750
                          5        0.708658E-01                -168.610773319290
                          6        0.122256E-01                -168.611238205502
                          7        0.598421E-02                -168.611272268995
                          8        0.528277E-02                -168.611272438110
                          9        0.104644E-02                -168.611275321653
                         10        0.260234E-02                -168.611274926630
                         11        0.975322E-03                -168.611275328217
                         12        0.161067E-03                -168.611275447773
                         13        0.147413E-03                -168.611275446839
                         14        0.115114E-03                -168.611275449434
                         15        0.167217E-03                -168.611275445436
                         16        0.255374E-04                -168.611275450531
                         17        0.418369E-04                -168.611275450414
                         18        0.393709E-04                -168.611275450477
                         19        0.239931E-04                -168.611275450542
                         20        0.173885E-04                -168.611275450557
                         21        0.851368E-05                -168.611275450578
                         22        0.849928E-05                -168.611275450580
                         23        0.544937E-05                -168.611275450584
                         24        0.540003E-05                -168.611275450586
                         25        0.613371E-05                -168.611275450584
                         26        0.311593E-06                -168.611275450588

 Energy components [Hartree]           Total Energy ::         -168.611275450588
                                        Band Energy ::          -26.568680144499
                                     Kinetic Energy ::           97.303659243130
                                   Potential Energy ::         -265.914934693718
                                      Virial (-V/T) ::            2.732835915546
                                        Core Energy ::         -299.566189183323
                                          XC Energy ::          -16.224592878785
                                     Coulomb Energy ::          147.179506611520
                       Total Pseudopotential Energy ::         -396.956189041778
                       Local Pseudopotential Energy ::         -362.645043136649
                    Nonlocal Pseudopotential Energy ::          -34.311145905129
                                        Confinement ::            0.863406153250

 Orbital energies  State     Spin  L     Occupation   Energy[a.u.]    Energy[eV]

                       1    alpha  0          1.000      -4.168335   -113.426177
                       2    alpha  0          1.000      -0.180730     -4.917906
                       1     beta  0          1.000      -4.145459   -112.803683
                       2     beta  0          1.000      -0.177117     -4.819606

                       1    alpha  1          3.000      -2.574525    -70.056390
                       1     beta  1          3.000      -2.552268    -69.450746

                       1    alpha  2          4.250      -0.323446     -8.801405
                       1     beta  2          3.750      -0.304537     -8.286881


 Total Electron Density at R=0:                                         0.030429

 Guess for atomic kind: Ni_b

 Electronic structure
    Total number of core electrons                                         10.00
    Total number of valence electrons                                      18.00
    Total number of electrons                                              28.00
    Multiplicity                                                         singlet
    Alpha Electrons
    S   [  1.00  1.00] 1.00  1.00
    P   [  3.00] 3.00
    D      4.17
    Beta Electrons
    S   [  1.00  1.00] 1.00  1.00
    P   [  3.00] 3.00
    D      3.83


 *******************************************************************************
                  Iteration          Convergence                     Energy [au]
 *******************************************************************************
                          1         1.51652                    -167.063662246171
                          2         14.6532                    -156.607975099372
                          3         2.19215                    -168.316160284925
                          4        0.174753                    -168.606818441862
                          5        0.620255E-01                -168.609597910556
                          6        0.911917E-02                -168.609987613702
                          7        0.809236E-02                -168.609999187264
                          8        0.558028E-02                -168.610001630790
                          9        0.113681E-02                -168.610004632053
                         10        0.244865E-02                -168.610004304032
                         11        0.897138E-03                -168.610004706533
                         12        0.150054E-03                -168.610004796217
                         13        0.771472E-04                -168.610004796672
                         14        0.722252E-04                -168.610004797340
                         15        0.127041E-03                -168.610004795073
                         16        0.633141E-04                -168.610004797560
                         17        0.218050E-04                -168.610004797774
                         18        0.259003E-04                -168.610004797839
                         19        0.189505E-04                -168.610004797863
                         20        0.209215E-04                -168.610004797852
                         21        0.145711E-04                -168.610004797878
                         22        0.768940E-05                -168.610004797891
                         23        0.670637E-05                -168.610004797896
                         24        0.381257E-05                -168.610004797897
                         25        0.259304E-05                -168.610004797898
                         26        0.167420E-05                -168.610004797899
                         27        0.106543E-05                -168.610004797899
                         28        0.134371E-05                -168.610004797900
                         29        0.417128E-06                -168.610004797900

 Energy components [Hartree]           Total Energy ::         -168.610004797900
                                        Band Energy ::          -26.568071230223
                                     Kinetic Energy ::           97.301945582265
                                   Potential Energy ::         -265.911950380165
                                      Virial (-V/T) ::            2.732853375016
                                        Core Energy ::         -299.565189302759
                                          XC Energy ::          -16.223139147481
                                     Coulomb Energy ::          147.178323652340
                       Total Pseudopotential Energy ::         -396.953475303089
                       Local Pseudopotential Energy ::         -362.643227871867
                    Nonlocal Pseudopotential Energy ::          -34.310247431223
                                        Confinement ::            0.863404180652

 Orbital energies  State     Spin  L     Occupation   Energy[a.u.]    Energy[eV]

                       1    alpha  0          1.000      -4.164812   -113.330292
                       2    alpha  0          1.000      -0.180164     -4.902507
                       1     beta  0          1.000      -4.149256   -112.906998
                       2     beta  0          1.000      -0.177708     -4.835668

                       1    alpha  1          3.000      -2.571097    -69.963095
                       1     beta  1          3.000      -2.555962    -69.551260

                       1    alpha  2          4.170      -0.320525     -8.721939
                       1     beta  2          3.830      -0.307667     -8.372055


 Total Electron Density at R=0:                                         0.030433

 Spin 1
 Re-scaling the density matrix to get the right number of electrons for spin 1
                  # Electrons              Trace(P)               Scaling factor
                        294.720             294.720                        1.000

 Spin 2
 Re-scaling the density matrix to get the right number of electrons for spin 2
                  # Electrons              Trace(P)               Scaling factor
                        281.280             281.280                        1.000


 SCF WAVEFUNCTION OPTIMIZATION

  Step     Update method      Time    Convergence         Total energy    Change
  ------------------------------------------------------------------------------
     1 NoMix/Diag. 0.80E-01    5.1     0.87435327     -5426.3872523235 -5.43E+03
     2 Broy./Diag. 0.80E-01    1.5     0.01493043     -5315.2914393339  1.11E+02
     3 Broy./Diag. 0.80E-01    1.5     0.05309143     -5352.3120617517 -3.70E+01
     4 Broy./Diag. 0.80E-01    1.5     0.00341827     -5417.4472721352 -6.51E+01
     5 Broy./Diag. 0.80E-01    1.5     0.02065621     -5413.7850333593  3.66E+00
     6 Broy./Diag. 0.80E-01    1.5     0.00241259     -5418.0910069081 -4.31E+00
     7 Broy./Diag. 0.80E-01    1.5     0.00775858     -5416.3041133413  1.79E+00
     8 Broy./Diag. 0.80E-01    1.5     0.00587639     -5417.2005352535 -8.96E-01
     9 Broy./Diag. 0.80E-01    1.5     0.01471797     -5416.9461311948  2.54E-01
    10 Broy./Diag. 0.80E-01    1.5     0.00121985     -5417.2709315951 -3.25E-01
    11 Broy./Diag. 0.80E-01    1.5     0.00398380     -5417.2911657177 -2.02E-02
    12 Broy./Diag. 0.80E-01    1.5     0.00625407     -5417.2885937914  2.57E-03
[...]
   122 Broy./Diag. 0.80E-01    1.5     0.00817412     -5417.6993268689  7.85E-01
   123 Broy./Diag. 0.80E-01    1.5     0.01332712     -5418.2860750911 -5.87E-01
   124 Broy./Diag. 0.80E-01    1.5     0.02045560     -5418.4333343022 -1.47E-01
   125 Broy./Diag. 0.80E-01    1.5     0.02472787     -5418.2650306157  1.68E-01
   126 Broy./Diag. 0.80E-01    1.5     0.00734057     -5418.0867303947  1.78E-01
   127 Broy./Diag. 0.80E-01    1.5     0.00896699     -5418.1295359114 -4.28E-02
   128 Broy./Diag. 0.80E-01    1.5     0.00922467     -5418.1993571037 -6.98E-02
   129 Broy./Diag. 0.80E-01    1.5     0.00224020     -5418.2042871817 -4.93E-03
   130 Broy./Diag. 0.80E-01    1.5     0.00852415     -5418.1858951750  1.84E-02
   131 Broy./Diag. 0.80E-01    1.5     0.03473257     -5418.1907341152 -4.84E-03
   132 Broy./Diag. 0.80E-01    1.6     0.01742972     -5418.2268482961 -3.61E-02
   133 Broy./Diag. 0.80E-01    1.5     0.01288406     -5418.0352004221  1.92E-01
   134 Broy./Diag. 0.80E-01    1.5     0.02091236     -5417.8107474581  2.24E-01
   135 Broy./Diag. 0.80E-01    1.5     0.01338324     -5418.3433905120 -5.33E-01
   136 Broy./Diag. 0.80E-01    1.5     0.01910856     -5418.3223039501  2.11E-02
   137 Broy./Diag. 0.80E-01    1.5     0.02810885     -5418.3424801885 -2.02E-02
   138 Broy./Diag. 0.80E-01    1.5     0.01917383     -5418.1013624228  2.41E-01
   139 Broy./Diag. 0.80E-01    1.5     0.00178954     -5418.1646940019 -6.33E-02
   140 Broy./Diag. 0.80E-01    1.5     0.01339640     -5418.0884185318  7.63E-02
   141 Broy./Diag. 0.80E-01    1.5     0.00588025     -5417.9269101352  1.62E-01
   142 Broy./Diag. 0.80E-01    1.5     0.00854968     -5417.9630782949 -3.62E-02
   143 Broy./Diag. 0.80E-01    1.5     0.00984982     -5417.9651259825 -2.05E-03
   144 Broy./Diag. 0.80E-01    1.5     0.02563460     -5417.9174579878  4.77E-02
   145 Broy./Diag. 0.80E-01    1.5     0.03471164     -5417.6973189963  2.20E-01
   146 Broy./Diag. 0.80E-01    1.5     0.00728551     -5417.9308518240 -2.34E-01
   147 Broy./Diag. 0.80E-01    1.5     0.03907136     -5417.6498425535  2.81E-01
   148 Broy./Diag. 0.80E-01    1.5     0.03527855     -5417.7918536421 -1.42E-01
   149 Broy./Diag. 0.80E-01    1.5     0.01917258     -5417.6369184417  1.55E-01
   150 Broy./Diag. 0.80E-01    1.5     0.01379145     -5417.8663564707 -2.29E-01
   151 Broy./Diag. 0.80E-01    1.5     0.03510857     -5417.8220260914  4.43E-02
   152 Broy./Diag. 0.80E-01    1.5     0.00908521     -5418.0302672277 -2.08E-01
   153 Broy./Diag. 0.80E-01    1.5     0.02491266     -5417.8902231812  1.40E-01
   154 Broy./Diag. 0.80E-01    1.5     0.00432178     -5418.1480444757 -2.58E-01
   155 Broy./Diag. 0.80E-01    1.5     0.01251606     -5418.1723808646 -2.43E-02
   156 Broy./Diag. 0.80E-01    1.5     0.01341479     -5417.6337348725  5.39E-01
   157 Broy./Diag. 0.80E-01    1.5     0.02721323     -5417.8678882041 -2.34E-01
   158 Broy./Diag. 0.80E-01    1.5     0.01283123     -5417.7836088170  8.43E-02
   159 Broy./Diag. 0.80E-01    1.5     0.01857738     -5417.7433421420  4.03E-02
   160 Broy./Diag. 0.80E-01    1.5     0.02377087     -5418.0577483780 -3.14E-01
   161 Broy./Diag. 0.80E-01    1.5     0.00824329     -5417.8810945698  1.77E-01
   162 Broy./Diag. 0.80E-01    1.5     0.01791206     -5417.8517375869  2.94E-02
   163 Broy./Diag. 0.80E-01    1.5     0.00565849     -5418.0690527301 -2.17E-01
   164 Broy./Diag. 0.80E-01    1.5     0.00381062     -5417.8750631661  1.94E-01
   165 Broy./Diag. 0.80E-01    1.5     0.00196014     -5417.8970122311 -2.19E-02
   166 Broy./Diag. 0.80E-01    1.5     0.00682717     -5417.8538336991  4.32E-02
   167 Broy./Diag. 0.80E-01    1.5     0.02712373     -5417.7254122205  1.28E-01
   168 Broy./Diag. 0.80E-01    1.5     0.05454223     -5417.9125030275 -1.87E-01
   169 Broy./Diag. 0.80E-01    1.5     0.00511502     -5418.0267484823 -1.14E-01
   170 Broy./Diag. 0.80E-01    1.5     0.00064204     -5417.9733262449  5.34E-02
   171 Broy./Diag. 0.80E-01    1.5     0.00671214     -5418.0270407266 -5.37E-02
   172 Broy./Diag. 0.80E-01    1.5     0.00447891     -5418.0330574318 -6.02E-03
   173 Broy./Diag. 0.80E-01    1.5     0.00878793     -5418.1492424850 -1.16E-01
   174 Broy./Diag. 0.80E-01    1.5     0.03018988     -5418.1825614697 -3.33E-02
   175 Broy./Diag. 0.80E-01    1.5     0.01005866     -5418.3003349120 -1.18E-01
   176 Broy./Diag. 0.80E-01    1.5     0.00971038     -5418.3918043407 -9.15E-02
   177 Broy./Diag. 0.80E-01    1.5     0.01675631     -5418.0170654718  3.75E-01
   178 Broy./Diag. 0.80E-01    1.5     0.00356557     -5418.3755417226 -3.58E-01
   179 Broy./Diag. 0.80E-01    1.5     0.01291402     -5418.2307708663  1.45E-01
   180 Broy./Diag. 0.80E-01    1.5     0.01233249     -5418.3665410147 -1.36E-01
   181 Broy./Diag. 0.80E-01    1.5     0.00933503     -5418.0245017675  3.42E-01
   182 Broy./Diag. 0.80E-01    1.5     0.00815364     -5418.1923698093 -1.68E-01
   183 Broy./Diag. 0.80E-01    1.5     0.00420908     -5418.5177137522 -3.25E-01
   184 Broy./Diag. 0.80E-01    1.5     0.02128568     -5418.4623954441  5.53E-02
   185 Broy./Diag. 0.80E-01    1.5     0.00231527     -5418.7115067086 -2.49E-01
   186 Broy./Diag. 0.80E-01    1.5     0.00263565     -5418.6540223544  5.75E-02
   187 Broy./Diag. 0.80E-01    1.5     0.00560679     -5418.5786243698  7.54E-02
   188 Broy./Diag. 0.80E-01    1.5     0.00185276     -5418.5598901290  1.87E-02
   189 Broy./Diag. 0.80E-01    1.5     0.00714055     -5418.5489905518  1.09E-02
   190 Broy./Diag. 0.80E-01    1.5     0.00848941     -5418.5640497736 -1.51E-02
   191 Broy./Diag. 0.80E-01    1.5     0.01317709     -5418.4077918904  1.56E-01
   192 Broy./Diag. 0.80E-01    1.5     0.01578749     -5418.5296508013 -1.22E-01
   193 Broy./Diag. 0.80E-01    1.5     0.01095865     -5418.4714679756  5.82E-02
   194 Broy./Diag. 0.80E-01    1.5     0.00428073     -5418.2279684122  2.43E-01
   195 Broy./Diag. 0.80E-01    1.5     0.01646382     -5417.9785625512  2.49E-01
   196 Broy./Diag. 0.80E-01    1.5     0.01154916     -5418.1982370795 -2.20E-01
   197 Broy./Diag. 0.80E-01    1.5     0.01757891     -5418.0832880568  1.15E-01
   198 Broy./Diag. 0.80E-01    1.5     0.00093997     -5417.9974983070  8.58E-02
   199 Broy./Diag. 0.80E-01    1.5     0.01603056     -5418.0230186332 -2.55E-02
   200 Broy./Diag. 0.80E-01    1.5     0.00220723     -5418.1056494330 -8.26E-02
   201 Broy./Diag. 0.80E-01    1.5     0.00796021     -5418.0907476517  1.49E-02
   202 Broy./Diag. 0.80E-01    1.5     0.02001171     -5417.9136140392  1.77E-01
   203 Broy./Diag. 0.80E-01    1.5     0.00302420     -5417.6578500319  2.56E-01
   204 Broy./Diag. 0.80E-01    1.5     0.00188610     -5417.6533765933  4.47E-03
   205 Broy./Diag. 0.80E-01    1.5     0.01529032     -5417.5205051442  1.33E-01
   206 Broy./Diag. 0.80E-01    1.5     0.00577849     -5417.6168012934 -9.63E-02
   207 Broy./Diag. 0.80E-01    1.5     0.00110586     -5417.5190093880  9.78E-02
   208 Broy./Diag. 0.80E-01    1.5     0.02226624     -5417.5014565250  1.76E-02
   209 Broy./Diag. 0.80E-01    1.5     0.01072673     -5417.4200412925  8.14E-02
   210 Broy./Diag. 0.80E-01    1.5     0.00134055     -5417.3232863191  9.68E-02
   211 Broy./Diag. 0.80E-01    1.5     0.01653573     -5417.3389621824 -1.57E-02
   212 Broy./Diag. 0.80E-01    1.5     0.00144752     -5417.2307679619  1.08E-01
   213 Broy./Diag. 0.80E-01    1.5     0.00598093     -5417.2340321451 -3.26E-03
   214 Broy./Diag. 0.80E-01    1.5     0.00639026     -5417.2426371019 -8.60E-03
   215 Broy./Diag. 0.80E-01    1.5     0.00894734     -5417.3378806981 -9.52E-02
   216 Broy./Diag. 0.80E-01    1.5     0.00538108     -5417.4657437206 -1.28E-01
   217 Broy./Diag. 0.80E-01    1.5     0.00427313     -5417.5295286842 -6.38E-02
   218 Broy./Diag. 0.80E-01    1.5     0.01241778     -5417.6298934293 -1.00E-01
   219 Broy./Diag. 0.80E-01    1.5     0.00397120     -5417.7150287853 -8.51E-02
   220 Broy./Diag. 0.80E-01    1.5     0.01255444     -5418.0387717966 -3.24E-01
   221 Broy./Diag. 0.80E-01    1.5     0.00254641     -5417.9041614287  1.35E-01
   222 Broy./Diag. 0.80E-01    1.5     0.00723071     -5417.9272607243 -2.31E-02
   223 Broy./Diag. 0.80E-01    1.5     0.00289811     -5418.0604963717 -1.33E-01
   224 Broy./Diag. 0.80E-01    1.5     0.01250696     -5417.9245154261  1.36E-01
   225 Broy./Diag. 0.80E-01    1.5     0.01133758     -5417.8004646203  1.24E-01
   226 Broy./Diag. 0.80E-01    1.5     0.00274515     -5417.9264117142 -1.26E-01
   227 Broy./Diag. 0.80E-01    1.5     0.00564134     -5417.9204015171  6.01E-03
   228 Broy./Diag. 0.80E-01    1.5     0.00072117     -5417.9868574173 -6.65E-02
   229 Broy./Diag. 0.80E-01    1.5     0.00249860     -5417.9775248190  9.33E-03
   230 Broy./Diag. 0.80E-01    1.5     0.00725754     -5417.8297831931  1.48E-01
   231 Broy./Diag. 0.80E-01    1.5     0.00509493     -5417.3898492703  4.40E-01
   232 Broy./Diag. 0.80E-01    1.5     0.00439721     -5417.6414173544 -2.52E-01
   233 Broy./Diag. 0.80E-01    1.5     0.01195220     -5417.6010306672  4.04E-02
   234 Broy./Diag. 0.80E-01    1.5     0.01363955     -5417.5566334346  4.44E-02
   235 Broy./Diag. 0.80E-01    1.5     0.02156072     -5417.6380907393 -8.15E-02
   236 Broy./Diag. 0.80E-01    1.5     0.00255590     -5417.4455661000  1.93E-01
   237 Broy./Diag. 0.80E-01    1.5     0.00360592     -5417.4594611825 -1.39E-02
   238 Broy./Diag. 0.80E-01    1.5     0.01351821     -5417.4532591489  6.20E-03
   239 Broy./Diag. 0.80E-01    1.5     0.00429035     -5417.0566352203  3.97E-01
   240 Broy./Diag. 0.80E-01    1.5     0.00481816     -5417.2299250512 -1.73E-01
   241 Broy./Diag. 0.80E-01    1.5     0.00353561     -5417.4364924503 -2.07E-01
   242 Broy./Diag. 0.80E-01    1.5     0.00226467     -5417.2889949918  1.47E-01
   243 Broy./Diag. 0.80E-01    1.5     0.00176502     -5417.3638307655 -7.48E-02
   244 Broy./Diag. 0.80E-01    1.5     0.00200624     -5417.3490777629  1.48E-02
   245 Broy./Diag. 0.80E-01    1.5     0.01073163     -5417.3804999284 -3.14E-02
   246 Broy./Diag. 0.80E-01    1.5     0.00344428     -5417.5542568011 -1.74E-01
   247 Broy./Diag. 0.80E-01    1.5     0.00882937     -5417.5053267435  4.89E-02
   248 Broy./Diag. 0.80E-01    1.5     0.00480147     -5417.7110750597 -2.06E-01
   249 Broy./Diag. 0.80E-01    1.5     0.00322434     -5417.7143564789 -3.28E-03
   250 Broy./Diag. 0.80E-01    1.5     0.00373394     -5417.8790068107 -1.65E-01
   251 Broy./Diag. 0.80E-01    1.5     0.00134313     -5417.6333720519  2.46E-01
   252 Broy./Diag. 0.80E-01    1.5     0.00956010     -5417.5968066073  3.66E-02
   253 Broy./Diag. 0.80E-01    1.5     0.00399156     -5417.6916060927 -9.48E-02
   254 Broy./Diag. 0.80E-01    1.5     0.00207486     -5417.7242042648 -3.26E-02
   255 Broy./Diag. 0.80E-01    1.5     0.00450162     -5417.7451434301 -2.09E-02
   256 Broy./Diag. 0.80E-01    1.5     0.00402341     -5418.0371316403 -2.92E-01
   257 Broy./Diag. 0.80E-01    1.5     0.00502575     -5417.9734078386  6.37E-02
   258 Broy./Diag. 0.80E-01    1.5     0.00935638     -5418.1729434328 -2.00E-01
   259 Broy./Diag. 0.80E-01    1.5     0.00469689     -5418.0958433031  7.71E-02
   260 Broy./Diag. 0.80E-01    1.5     0.01424723     -5417.8328822756  2.63E-01
   261 Broy./Diag. 0.80E-01    1.5     0.00186103     -5418.0633438477 -2.30E-01
   262 Broy./Diag. 0.80E-01    1.5     0.00972925     -5417.9393235249  1.24E-01
   263 Broy./Diag. 0.80E-01    1.5     0.02109771     -5418.0750241237 -1.36E-01
   264 Broy./Diag. 0.80E-01    1.5     0.01016392     -5417.7195176308  3.56E-01
   265 Broy./Diag. 0.80E-01    1.5     0.01032788     -5417.9164666336 -1.97E-01
   266 Broy./Diag. 0.80E-01    1.5     0.00281796     -5417.7167888033  2.00E-01
   267 Broy./Diag. 0.80E-01    1.5     0.00320580     -5417.7572186641 -4.04E-02
   268 Broy./Diag. 0.80E-01    1.5     0.00252433     -5417.7493432111  7.88E-03
   269 Broy./Diag. 0.80E-01    1.5     0.00748926     -5417.8864347436 -1.37E-01
   270 Broy./Diag. 0.80E-01    1.5     0.00782917     -5417.7667248633  1.20E-01
   271 Broy./Diag. 0.80E-01    1.5     0.00371448     -5417.8339982372 -6.73E-02
   272 Broy./Diag. 0.80E-01    1.5     0.01378141     -5417.6994835029  1.35E-01
   273 Broy./Diag. 0.80E-01    1.5     0.00937309     -5417.9016844636 -2.02E-01
   274 Broy./Diag. 0.80E-01    1.5     0.00476392     -5417.4863273887  4.15E-01
   275 Broy./Diag. 0.80E-01    1.5     0.00750596     -5417.8722400458 -3.86E-01
   276 Broy./Diag. 0.80E-01    1.5     0.00386881     -5417.8687751642  3.46E-03
   277 Broy./Diag. 0.80E-01    1.5     0.00284155     -5417.8748437876 -6.07E-03
   278 Broy./Diag. 0.80E-01    1.5     0.00436891     -5417.8213679733  5.35E-02
   279 Broy./Diag. 0.80E-01    1.5     0.00608000     -5417.8875797727 -6.62E-02
   280 Broy./Diag. 0.80E-01    1.5     0.01127162     -5417.7749978158  1.13E-01
   281 Broy./Diag. 0.80E-01    1.5     0.00865708     -5417.5201295700  2.55E-01
   282 Broy./Diag. 0.80E-01    1.5     0.01345664     -5418.2146084081 -6.94E-01
   283 Broy./Diag. 0.80E-01    1.5     0.00867359     -5417.6488764514  5.66E-01
   284 Broy./Diag. 0.80E-01    1.5     0.00345795     -5418.0419718884 -3.93E-01
   285 Broy./Diag. 0.80E-01    1.5     0.00747448     -5417.8572977099  1.85E-01
   286 Broy./Diag. 0.80E-01    1.5     0.00953135     -5417.8654628407 -8.17E-03
   287 Broy./Diag. 0.80E-01    1.5     0.00139886     -5417.8573198233  8.14E-03
   288 Broy./Diag. 0.80E-01    1.5     0.00837022     -5417.8487872373  8.53E-03
   289 Broy./Diag. 0.80E-01    1.5     0.00701054     -5417.8437750336  5.01E-03
   290 Broy./Diag. 0.80E-01    1.5     0.00542341     -5418.0114865050 -1.68E-01
   291 Broy./Diag. 0.80E-01    1.5     0.00068953     -5418.0492845755 -3.78E-02
   292 Broy./Diag. 0.80E-01    1.5     0.00262775     -5417.9490377912  1.00E-01
   293 Broy./Diag. 0.80E-01    1.5     0.00960899     -5417.6092336339  3.40E-01
   294 Broy./Diag. 0.80E-01    1.5     0.00901719     -5417.6814228766 -7.22E-02
   295 Broy./Diag. 0.80E-01    1.5     0.00550819     -5417.7540234339 -7.26E-02
   296 Broy./Diag. 0.80E-01    1.5     0.00678601     -5418.0169746192 -2.63E-01
   297 Broy./Diag. 0.80E-01    1.5     0.00655587     -5418.0544131898 -3.74E-02
   298 Broy./Diag. 0.80E-01    1.5     0.01010615     -5417.9081773553  1.46E-01
   299 Broy./Diag. 0.80E-01    1.5     0.00348763     -5418.0472517967 -1.39E-01
   300 Broy./Diag. 0.80E-01    1.5     0.01658400     -5418.1232172831 -7.60E-02
   301 Broy./Diag. 0.80E-01    1.5     0.00953311     -5417.8686742166  2.55E-01
   302 Broy./Diag. 0.80E-01    1.5     0.00828928     -5418.3464291319 -4.78E-01
   303 Broy./Diag. 0.80E-01    1.5     0.00453019     -5418.3984326335 -5.20E-02
   304 Broy./Diag. 0.80E-01    1.5     0.00069453     -5418.4256208689 -2.72E-02
   305 Broy./Diag. 0.80E-01    1.5     0.00351747     -5418.4166691600  8.95E-03
   306 Broy./Diag. 0.80E-01    1.5     0.00201954     -5418.5163735672 -9.97E-02
   307 Broy./Diag. 0.80E-01    1.5     0.00875178     -5418.5432193118 -2.68E-02
   308 Broy./Diag. 0.80E-01    1.5     0.00288208     -5418.5305396082  1.27E-02
   309 Broy./Diag. 0.80E-01    1.5     0.00929107     -5418.5773949680 -4.69E-02
   310 Broy./Diag. 0.80E-01    1.5     0.00760852     -5418.4272550433  1.50E-01
   311 Broy./Diag. 0.80E-01    1.5     0.00172547     -5418.0582549941  3.69E-01
   312 Broy./Diag. 0.80E-01    1.5     0.01416890     -5417.8693226072  1.89E-01
   313 Broy./Diag. 0.80E-01    1.5     0.00920317     -5417.9857302515 -1.16E-01
   314 Broy./Diag. 0.80E-01    1.5     0.00313438     -5417.8545880581  1.31E-01
   315 Broy./Diag. 0.80E-01    1.5     0.00365370     -5417.8639476082 -9.36E-03
   316 Broy./Diag. 0.80E-01    1.5     0.00521222     -5417.8642584296 -3.11E-04
   317 Broy./Diag. 0.80E-01    1.5     0.00633317     -5417.8157832602  4.85E-02
   318 Broy./Diag. 0.80E-01    1.5     0.01222742     -5417.9640005642 -1.48E-01
   319 Broy./Diag. 0.80E-01    1.5     0.01087199     -5417.8174531665  1.47E-01
   320 Broy./Diag. 0.80E-01    1.5     0.00795714     -5417.9055396917 -8.81E-02
   321 Broy./Diag. 0.80E-01    1.5     0.00447322     -5418.0243034876 -1.19E-01
   322 Broy./Diag. 0.80E-01    1.5     0.00258335     -5417.9267151801  9.76E-02
   323 Broy./Diag. 0.80E-01    1.5     0.00554663     -5417.9730616647 -4.63E-02
   324 Broy./Diag. 0.80E-01    1.5     0.00451839     -5417.9657555492  7.31E-03
   325 Broy./Diag. 0.80E-01    1.5     0.00233211     -5417.9939323130 -2.82E-02
   326 Broy./Diag. 0.80E-01    1.5     0.00358900     -5417.9568982305  3.70E-02
   327 Broy./Diag. 0.80E-01    1.5     0.00196665     -5418.0316762688 -7.48E-02
   328 Broy./Diag. 0.80E-01    1.5     0.00415189     -5418.0038778552  2.78E-02
   329 Broy./Diag. 0.80E-01    1.5     0.00141414     -5417.9810493350  2.28E-02
   330 Broy./Diag. 0.80E-01    1.5     0.00872547     -5417.9669590606  1.41E-02
   331 Broy./Diag. 0.80E-01    1.5     0.00892642     -5417.8730220411  9.39E-02
   332 Broy./Diag. 0.80E-01    1.5     0.00718293     -5417.8704146386  2.61E-03
   333 Broy./Diag. 0.80E-01    1.5     0.00425374     -5417.9426650289 -7.23E-02
   334 Broy./Diag. 0.80E-01    1.5     0.00071643     -5417.8982114351  4.45E-02
   335 Broy./Diag. 0.80E-01    1.5     0.00263623     -5417.8929919351  5.22E-03
   336 Broy./Diag. 0.80E-01    1.5     0.01550431     -5417.8748065876  1.82E-02
   337 Broy./Diag. 0.80E-01    1.5     0.01098733     -5417.7411141904  1.34E-01
   338 Broy./Diag. 0.80E-01    1.5     0.00692314     -5417.8078655290 -6.68E-02
   339 Broy./Diag. 0.80E-01    1.5     0.00704847     -5417.8525911581 -4.47E-02
   340 Broy./Diag. 0.80E-01    1.5     0.01154472     -5417.9125665086 -6.00E-02
   341 Broy./Diag. 0.80E-01    1.5     0.00732009     -5417.7629750713  1.50E-01
   342 Broy./Diag. 0.80E-01    1.5     0.00367425     -5417.8600962341 -9.71E-02
   343 Broy./Diag. 0.80E-01    1.5     0.00618350     -5417.8239853009  3.61E-02
   344 Broy./Diag. 0.80E-01    1.5     0.00425066     -5417.8108486996  1.31E-02
   345 Broy./Diag. 0.80E-01    1.5     0.00344287     -5417.8047562727  6.09E-03
   346 Broy./Diag. 0.80E-01    1.5     0.00528566     -5417.7826702989  2.21E-02
   347 Broy./Diag. 0.80E-01    1.5     0.00713283     -5417.8135299704 -3.09E-02
   348 Broy./Diag. 0.80E-01    1.5     0.00327026     -5417.7954629704  1.81E-02
   349 Broy./Diag. 0.80E-01    1.5     0.00394728     -5417.8320928816 -3.66E-02
   350 Broy./Diag. 0.80E-01    1.5     0.02197932     -5417.8410055286 -8.91E-03
   351 Broy./Diag. 0.80E-01    1.5     0.00133313     -5417.8228746435  1.81E-02
   352 Broy./Diag. 0.80E-01    1.5     0.00105831     -5417.7514444140  7.14E-02
   353 Broy./Diag. 0.80E-01    1.5     0.00522847     -5417.7069795025  4.45E-02
   354 Broy./Diag. 0.80E-01    1.5     0.00733572     -5417.7190534207 -1.21E-02
   355 Broy./Diag. 0.80E-01    1.5     0.00624699     -5417.6029299402  1.16E-01
   356 Broy./Diag. 0.80E-01    1.5     0.00969197     -5417.7372030408 -1.34E-01
   357 Broy./Diag. 0.80E-01    1.5     0.00895154     -5417.6609420172  7.63E-02
   358 Broy./Diag. 0.80E-01    1.5     0.00499676     -5417.7669005912 -1.06E-01
   359 Broy./Diag. 0.80E-01    1.5     0.02325388     -5417.7267643941  4.01E-02
   360 Broy./Diag. 0.80E-01    1.5     0.00903926     -5417.4459487562  2.81E-01
   361 Broy./Diag. 0.80E-01    1.5     0.00505123     -5417.6042247386 -1.58E-01
   362 Broy./Diag. 0.80E-01    1.5     0.00622803     -5417.6326238452 -2.84E-02
   363 Broy./Diag. 0.80E-01    1.5     0.00876874     -5417.5188123233  1.14E-01
   364 Broy./Diag. 0.80E-01    1.5     0.00702995     -5417.5018672450  1.69E-02
   365 Broy./Diag. 0.80E-01    1.5     0.00352661     -5417.6185093022 -1.17E-01
   366 Broy./Diag. 0.80E-01    1.5     0.00199872     -5417.5722865950  4.62E-02
   367 Broy./Diag. 0.80E-01    1.5     0.00675735     -5417.5461340824  2.62E-02
