 DBCSR| CPU Multiplication driver                                           XSMM (U)
 DBCSR| Multrec recursion limit                                              512 (U)
 DBCSR| Multiplication stack size                                           1000 (D)
 DBCSR| Maximum elements for images                                    UNLIMITED (U)
 DBCSR| Multiplicative factor virtual images                                   1 (U)
 DBCSR| Use multiplication densification                                       T (D)
 DBCSR| Multiplication size stacks                                             3 (U)
 DBCSR| Use memory pool for CPU allocation                                     F (U)
 DBCSR| Number of 3D layers                                               SINGLE (U)
 DBCSR| Use MPI memory allocation                                              F (U)
 DBCSR| Use RMA algorithm                                                      F (U)
 DBCSR| Use Communication thread                                               T (U)
 DBCSR| Communication thread load                                             87 (D)
 DBCSR| MPI: My process id                                                     0
 DBCSR| MPI: Number of processes                                             128
 DBCSR| OMP: Current number of threads                                         1
 DBCSR| OMP: Max number of threads                                             1
 DBCSR| Split modifier for TAS multiplication algorithm                  1.0E+00 (U)


  **** **** ******  **  PROGRAM STARTED AT               2023-02-15 12:30:33.747
 ***** ** ***  *** **   PROGRAM STARTED ON                             nid006725
 **    ****   ******    PROGRAM STARTED BY                                cahart
 ***** **    ** ** **   PROGRAM PROCESS ID                                 98836
  **** **  *******  **  PROGRAM STARTED IN /mnt/lustre/a2fs-work2/work/e05/e05/c
                                           ahart/postdoc/masters/ni/archer2/slab
                                           /optimise/magnetisation/scf_1e-4_temp
                                           -2000_mos-1000_alpha-0.08_beta-1.5_pe
                                           riodic-xyz/search/0.65_0.6

 CP2K| version string:                 CP2K version 2023.1 (Development Version)
 CP2K| source code revision number:                                  git:964cd58
 CP2K| cp2kflags: omp libint fftw3 libxc elpa parallel scalapack xsmm plumed2 mk
 CP2K|            l
 CP2K| is freely available from                            https://www.cp2k.org/
 CP2K| Program compiled at                          Mon 13 Feb 17:05:14 GMT 2023
 CP2K| Program compiled on                                                  ln01
 CP2K| Program compiled for                                              ARCHER2
 CP2K| Data directory path    /work/e05/e05/cahart/cp2k/cp2k-2023.1/cp2k-2023.1-
 CP2K| Input file name                                                  cp2k.inp

 GLOBAL| Force Environment number                                              1
 GLOBAL| Basis set file name                                        BASIS_MOLOPT
 GLOBAL| Potential file name                                      GTH_POTENTIALS
 GLOBAL| MM Potential file name                                     MM_POTENTIAL
 GLOBAL| Coordinate file name                                      __STD_INPUT__
 GLOBAL| Method name                                                        CP2K
 GLOBAL| Project name                                                    Ni_bulk
 GLOBAL| Run type                                                         ENERGY
 GLOBAL| FFT library                                                       FFTW3
 GLOBAL| Diagonalization library                                            ELPA
 GLOBAL| DGEMM library                                                      BLAS
 GLOBAL| Minimum number of eigenvectors for ELPA usage                        16
 GLOBAL| Orthonormality check for eigenvectors                          DISABLED
 GLOBAL| Matrix multiplication library                                 ScaLAPACK
 GLOBAL| All-to-all communication in single precision                          F
 GLOBAL| FFTs using library dependent lengths                                  F
 GLOBAL| Grid backend                                                       AUTO
 GLOBAL| Global print level                                               MEDIUM
 GLOBAL| MPI I/O enabled                                                       T
 GLOBAL| Total number of message passing processes                           128
 GLOBAL| Number of threads for this process                                    1
 GLOBAL| This output is from process                                           0
 GLOBAL| Stack size for threads created by OpenMP (OMP_STACKSIZE)        default
 GLOBAL| CPU model name                          AMD EPYC 7742 64-Core Processor
 GLOBAL| CPUID                                                              1002

 MEMORY| system memory details [Kb]
 MEMORY|                        rank 0           min           max       average
 MEMORY| MemTotal            263528088     263528088     263528088     263528088
 MEMORY| MemFree             238809624     238809624     238809624     238809624
 MEMORY| Buffers                 31360         31360         31360         31360
 MEMORY| Cached                 718000        718000        718000        718000
 MEMORY| Slab                  1567936       1567936       1567936       1567936
 MEMORY| SReclaimable           101092        101092        101092        101092
 MEMORY| MemLikelyFree       239660076     239660076     239660076     239660076


 *** Fundamental physical constants (SI units) ***

 *** Literature: B. J. Mohr and B. N. Taylor,
 ***             CODATA recommended values of the fundamental physical
 ***             constants: 2006, Web Version 5.1
 ***             http://physics.nist.gov/constants

 Speed of light in vacuum [m/s]                             2.99792458000000E+08
 Magnetic constant or permeability of vacuum [N/A**2]       1.25663706143592E-06
 Electric constant or permittivity of vacuum [F/m]          8.85418781762039E-12
 Planck constant (h) [J*s]                                  6.62606896000000E-34
 Planck constant (h-bar) [J*s]                              1.05457162825177E-34
 Elementary charge [C]                                      1.60217648700000E-19
 Electron mass [kg]                                         9.10938215000000E-31
 Electron g factor [ ]                                     -2.00231930436220E+00
 Proton mass [kg]                                           1.67262163700000E-27
 Fine-structure constant                                    7.29735253760000E-03
 Rydberg constant [1/m]                                     1.09737315685270E+07
 Avogadro constant [1/mol]                                  6.02214179000000E+23
 Boltzmann constant [J/K]                                   1.38065040000000E-23
 Atomic mass unit [kg]                                      1.66053878200000E-27
 Bohr radius [m]                                            5.29177208590000E-11

 *** Conversion factors ***

 [u] -> [a.u.]                                              1.82288848426455E+03
 [Angstrom] -> [Bohr] = [a.u.]                              1.88972613288564E+00
 [a.u.] = [Bohr] -> [Angstrom]                              5.29177208590000E-01
 [a.u.] -> [s]                                              2.41888432650478E-17
 [a.u.] -> [fs]                                             2.41888432650478E-02
 [a.u.] -> [J]                                              4.35974393937059E-18
 [a.u.] -> [N]                                              8.23872205491840E-08
 [a.u.] -> [K]                                              3.15774647902944E+05
 [a.u.] -> [kJ/mol]                                         2.62549961709828E+03
 [a.u.] -> [kcal/mol]                                       6.27509468713739E+02
 [a.u.] -> [Pa]                                             2.94210107994716E+13
 [a.u.] -> [bar]                                            2.94210107994716E+08
 [a.u.] -> [atm]                                            2.90362800883016E+08
 [a.u.] -> [eV]                                             2.72113838565563E+01
 [a.u.] -> [Hz]                                             6.57968392072181E+15
 [a.u.] -> [1/cm] (wave numbers)                            2.19474631370540E+05
 [a.u./Bohr**2] -> [1/cm]                                   5.14048714338585E+03
 

 CELL_TOP| Volume [angstrom^3]:                                       983.249569
 CELL_TOP| Vector a [angstrom     7.012     0.000     0.000   |a| =     7.011596
 CELL_TOP| Vector b [angstrom     0.000     7.012     0.000   |b| =     7.011596
 CELL_TOP| Vector c [angstrom     0.000     0.000    20.000   |c| =    20.000000
 CELL_TOP| Angle (b,c), alpha [degree]:                                90.000000
 CELL_TOP| Angle (a,c), beta  [degree]:                                90.000000
 CELL_TOP| Angle (a,b), gamma [degree]:                                90.000000
 CELL_TOP| Numerically orthorhombic:                                         YES
 CELL_TOP| Periodicity                                                       XYZ

 GENERATE|  Preliminary Number of Bonds generated:                             0
 GENERATE|  Achieved consistency in connectivity generation.

 CELL| Volume [angstrom^3]:                                           983.249569
 CELL| Vector a [angstrom]:       7.012     0.000     0.000   |a| =     7.011596
 CELL| Vector b [angstrom]:       0.000     7.012     0.000   |b| =     7.011596
 CELL| Vector c [angstrom]:       0.000     0.000    20.000   |c| =    20.000000
 CELL| Angle (b,c), alpha [degree]:                                    90.000000
 CELL| Angle (a,c), beta  [degree]:                                    90.000000
 CELL| Angle (a,b), gamma [degree]:                                    90.000000
 CELL| Numerically orthorhombic:                                             YES
 CELL| Periodicity                                                           XYZ

 CELL_REF| Volume [angstrom^3]:                                       983.249569
 CELL_REF| Vector a [angstrom     7.012     0.000     0.000   |a| =     7.011596
 CELL_REF| Vector b [angstrom     0.000     7.012     0.000   |b| =     7.011596
 CELL_REF| Vector c [angstrom     0.000     0.000    20.000   |c| =    20.000000
 CELL_REF| Angle (b,c), alpha [degree]:                                90.000000
 CELL_REF| Angle (a,c), beta  [degree]:                                90.000000
 CELL_REF| Angle (a,b), gamma [degree]:                                90.000000
 CELL_REF| Numerically orthorhombic:                                         YES
 CELL_REF| Periodicity                                                       XYZ

 *** WARNING in cryssym.F:165 :: Symmetry library SPGLIB not available ***


 *******************************************************************************
                                    Kpoints
 *******************************************************************************
 BRILLOUIN| K-point scheme                                        Monkhorst-Pack
 BRILLOUIN| K-Point grid                                             4    4    1
 BRILLOUIN| Accuracy in Symmetry determination                      0.100000E-05
 BRILLOUIN| K-Point point group symmetrization                               OFF
 BRILLOUIN| Wavefunction type                                            COMPLEX
 BRILLOUIN| List of Kpoints [2 Pi/Bohr]                                        8
 BRILLOUIN| Number           Weight            X              Y              Z
 BRILLOUIN|     1           0.12500       -0.37500       -0.37500        0.00000
 BRILLOUIN|     2           0.12500       -0.37500       -0.12500        0.00000
 BRILLOUIN|     3           0.12500       -0.37500        0.12500        0.00000
 BRILLOUIN|     4           0.12500       -0.37500        0.37500        0.00000
 BRILLOUIN|     5           0.12500       -0.12500       -0.37500        0.00000
 BRILLOUIN|     6           0.12500       -0.12500       -0.12500        0.00000
 BRILLOUIN|     7           0.12500       -0.12500        0.12500        0.00000
 BRILLOUIN|     8           0.12500       -0.12500        0.37500        0.00000
 *******************************************************************************

 *******************************************************************************
 *******************************************************************************
 **                                                                           **
 **     #####                         ##              ##                      **
 **    ##   ##            ##          ##              ##                      **
 **   ##     ##                       ##            ######                    **
 **   ##     ##  ##   ##  ##   #####  ##  ##   ####   ##    #####    #####    **
 **   ##     ##  ##   ##  ##  ##      ## ##   ##      ##   ##   ##  ##   ##   **
 **   ##  ## ##  ##   ##  ##  ##      ####     ###    ##   ######   ######    **
 **    ##  ###   ##   ##  ##  ##      ## ##      ##   ##   ##       ##        **
 **     #######   #####   ##   #####  ##  ##  ####    ##    #####   ##        **
 **           ##                                                    ##        **
 **                                                                           **
 **                                                ... make the atoms dance   **
 **                                                                           **
 **            Copyright (C) by CP2K developers group (2000-2023)             **
 **                      J. Chem. Phys. 152, 194103 (2020)                    **
 **                                                                           **
 *******************************************************************************

 *** WARNING in qs_environment.F:1456 :: Number of electrons will be ***
 *** overwritten by NELEC_ALPHA and NELEC_BETA, multiplicity will be ***
 *** ignored.                                                        ***

 Number of electrons should be                                               576
 Sum of NELEC_ALPHA and NELEC_BETA is                                    576.000

 *** WARNING in qs_environment.F:1532 :: More ADDED_MOs requested for beta ***
 *** spin than available.                                                  ***


 *** WARNING in qs_environment.F:1548 :: More added MOs requested than     ***
 *** available. The full set of unoccupied MOs will be used. Use           ***
 *** 'ADDED_MOS -1' to always use all available MOs and to get rid of this ***
 *** warning.                                                              ***


 DFT| Spin unrestricted (spin-polarized) Kohn-Sham calculation               UKS
 DFT| Multiplicity                                                             1
 DFT| Number of spin states                                                    2
 DFT| Charge                                                                   0
 DFT| Self-interaction correction (SIC)                                       NO
 DFT| Cutoffs: density                                              1.000000E-10
 DFT|          gradient                                             1.000000E-10
 DFT|          tau                                                  1.000000E-10
 DFT|          cutoff_smoothing_range                               0.000000E+00
 DFT| XC density smoothing                                                  NONE
 DFT| XC derivatives                                                          PW

 FUNCTIONAL| PBE:
 FUNCTIONAL| J.P.Perdew, K.Burke, M.Ernzerhof, Phys. Rev. Letter, vol. 77, n 18,
 FUNCTIONAL|  pp. 3865-3868, (1996){spin polarized}                             

 vdW POTENTIAL|                                                   Pair Potential
 vdW POTENTIAL|          DFT-D3 (Version 3.1)
 vdW POTENTIAL|          Potential Form: S. Grimme et al, JCP 132: 154104 (2010)
 vdW POTENTIAL|          Zero Damping
 vdW POTENTIAL|          Cutoff Radius [Bohr]:                             20.00
 vdW POTENTIAL|          s6 Scaling Factor:                               1.0000
 vdW POTENTIAL|          sr6 Scaling Factor:                              1.2170
 vdW POTENTIAL|          s8 Scaling Factor:                               0.7220
 vdW POTENTIAL|          Cutoff for CN calculation:                   0.1000E-05

 QS| Method:                                                                 GPW
 QS| Density plane wave grid type                        NON-SPHERICAL FULLSPACE
 QS| Number of grid levels:                                                    5
 QS| Density cutoff [a.u.]:                                                300.0
 QS| Multi grid cutoff [a.u.]: 1) grid level                               300.0
 QS|                           2) grid level                               100.0
 QS|                           3) grid level                                33.3
 QS|                           4) grid level                                11.1
 QS|                           5) grid level                                 3.7
 QS| Grid level progression factor:                                          3.0
 QS| Relative density cutoff [a.u.]:                                        30.0
 QS| Interaction thresholds: eps_pgf_orb:                                1.0E-06
 QS|                         eps_filter_matrix:                          0.0E+00
 QS|                         eps_core_charge:                            1.0E-14
 QS|                         eps_rho_gspace:                             1.0E-12
 QS|                         eps_rho_rspace:                             1.0E-12
 QS|                         eps_gvg_rspace:                             1.0E-06
 QS|                         eps_ppl:                                    1.0E-02
 QS|                         eps_ppnl:                                   1.0E-08


 ATOMIC KIND INFORMATION

  1. Atomic kind: Ni_i                                  Number of atoms:      16

     Orbital Basis Set                                        DZVP-MOLOPT-SR-GTH

       Number of orbital shell sets:                                           1
       Number of orbital shells:                                               8
       Number of primitive Cartesian functions:                                6
       Number of Cartesian basis functions:                                   31
       Number of spherical basis functions:                                   26
       Norm type:                                                              2

       Normalised Cartesian orbitals:

                        Set   Shell   Orbital            Exponent    Coefficient

                          1       1    2s               10.077428      -0.684558
                                                         5.847736      -0.844524
                                                         2.494033       1.088856
                                                         0.988355       0.395503
                                                         0.344978       0.010224
                                                         0.099466      -0.003250

                          1       2    3s               10.077428       0.096747
                                                         5.847736       0.162504
                                                         2.494033      -0.297192
                                                         0.988355      -0.319752
                                                         0.344978       0.088318
                                                         0.099466       0.118587

                          1       3    4s               10.077428       0.036437
                                                         5.847736      -0.381480
                                                         2.494033       0.003759
                                                         0.988355      -1.048256
                                                         0.344978       0.855825
                                                         0.099466      -0.176350

                          1       4    3px              10.077428      -3.133913
                                                         5.847736       3.027656
                                                         2.494033       2.353227
                                                         0.988355       0.554184
                                                         0.344978       0.019462
                                                         0.099466      -0.000291
                          1       4    3py              10.077428      -3.133913
                                                         5.847736       3.027656
                                                         2.494033       2.353227
                                                         0.988355       0.554184
                                                         0.344978       0.019462
                                                         0.099466      -0.000291
                          1       4    3pz              10.077428      -3.133913
                                                         5.847736       3.027656
                                                         2.494033       2.353227
                                                         0.988355       0.554184
                                                         0.344978       0.019462
                                                         0.099466      -0.000291

                          1       5    4px              10.077428      -0.112729
                                                         5.847736      -0.114008
                                                         2.494033      -0.347303
                                                         0.988355      -0.110323
                                                         0.344978       0.154096
                                                         0.099466       0.058386
                          1       5    4py              10.077428      -0.112729
                                                         5.847736      -0.114008
                                                         2.494033      -0.347303
                                                         0.988355      -0.110323
                                                         0.344978       0.154096
                                                         0.099466       0.058386
                          1       5    4pz              10.077428      -0.112729
                                                         5.847736      -0.114008
                                                         2.494033      -0.347303
                                                         0.988355      -0.110323
                                                         0.344978       0.154096
                                                         0.099466       0.058386

                          1       6    4dx2             10.077428       8.232726
                                                         5.847736       9.105758
                                                         2.494033       2.849835
                                                         0.988355       0.554319
                                                         0.344978       0.067245
                                                         0.099466       0.001940
                          1       6    4dxy             10.077428      14.259500
                                                         5.847736      15.771636
                                                         2.494033       4.936060
                                                         0.988355       0.960109
                                                         0.344978       0.116472
                                                         0.099466       0.003360
                          1       6    4dxz             10.077428      14.259500
                                                         5.847736      15.771636
                                                         2.494033       4.936060
                                                         0.988355       0.960109
                                                         0.344978       0.116472
                                                         0.099466       0.003360
                          1       6    4dy2             10.077428       8.232726
                                                         5.847736       9.105758
                                                         2.494033       2.849835
                                                         0.988355       0.554319
                                                         0.344978       0.067245
                                                         0.099466       0.001940
                          1       6    4dyz             10.077428      14.259500
                                                         5.847736      15.771636
                                                         2.494033       4.936060
                                                         0.988355       0.960109
                                                         0.344978       0.116472
                                                         0.099466       0.003360
                          1       6    4dz2             10.077428       8.232726
                                                         5.847736       9.105758
                                                         2.494033       2.849835
                                                         0.988355       0.554319
                                                         0.344978       0.067245
                                                         0.099466       0.001940

                          1       7    5dx2             10.077428      -2.715373
                                                         5.847736      -4.020640
                                                         2.494033      -1.397569
                                                         0.988355      -0.076143
                                                         0.344978       0.033435
                                                         0.099466       0.026032
                          1       7    5dxy             10.077428      -4.703164
                                                         5.847736      -6.963952
                                                         2.494033      -2.420661
                                                         0.988355      -0.131883
                                                         0.344978       0.057911
                                                         0.099466       0.045088
                          1       7    5dxz             10.077428      -4.703164
                                                         5.847736      -6.963952
                                                         2.494033      -2.420661
                                                         0.988355      -0.131883
                                                         0.344978       0.057911
                                                         0.099466       0.045088
                          1       7    5dy2             10.077428      -2.715373
                                                         5.847736      -4.020640
                                                         2.494033      -1.397569
                                                         0.988355      -0.076143
                                                         0.344978       0.033435
                                                         0.099466       0.026032
                          1       7    5dyz             10.077428      -4.703164
                                                         5.847736      -6.963952
                                                         2.494033      -2.420661
                                                         0.988355      -0.131883
                                                         0.344978       0.057911
                                                         0.099466       0.045088
                          1       7    5dz2             10.077428      -2.715373
                                                         5.847736      -4.020640
                                                         2.494033      -1.397569
                                                         0.988355      -0.076143
                                                         0.344978       0.033435
                                                         0.099466       0.026032

                          1       8    5fx3             10.077428      -0.467694
                                                         5.847736       0.618100
                                                         2.494033       0.066069
                                                         0.988355       0.262898
                                                         0.344978       0.004720
                                                         0.099466       0.007748
                          1       8    5fx2y            10.077428      -1.045795
                                                         5.847736       1.382114
                                                         2.494033       0.147734
                                                         0.988355       0.587859
                                                         0.344978       0.010555
                                                         0.099466       0.017325
                          1       8    5fx2z            10.077428      -1.045795
                                                         5.847736       1.382114
                                                         2.494033       0.147734
                                                         0.988355       0.587859
                                                         0.344978       0.010555
                                                         0.099466       0.017325
                          1       8    5fxy2            10.077428      -1.045795
                                                         5.847736       1.382114
                                                         2.494033       0.147734
                                                         0.988355       0.587859
                                                         0.344978       0.010555
                                                         0.099466       0.017325
                          1       8    5fxyz            10.077428      -1.811371
                                                         5.847736       2.393892
                                                         2.494033       0.255883
                                                         0.988355       1.018201
                                                         0.344978       0.018282
                                                         0.099466       0.030008
                          1       8    5fxz2            10.077428      -1.045795
                                                         5.847736       1.382114
                                                         2.494033       0.147734
                                                         0.988355       0.587859
                                                         0.344978       0.010555
                                                         0.099466       0.017325
                          1       8    5fy3             10.077428      -0.467694
                                                         5.847736       0.618100
                                                         2.494033       0.066069
                                                         0.988355       0.262898
                                                         0.344978       0.004720
                                                         0.099466       0.007748
                          1       8    5fy2z            10.077428      -1.045795
                                                         5.847736       1.382114
                                                         2.494033       0.147734
                                                         0.988355       0.587859
                                                         0.344978       0.010555
                                                         0.099466       0.017325
                          1       8    5fyz2            10.077428      -1.045795
                                                         5.847736       1.382114
                                                         2.494033       0.147734
                                                         0.988355       0.587859
                                                         0.344978       0.010555
                                                         0.099466       0.017325
                          1       8    5fz3             10.077428      -0.467694
                                                         5.847736       0.618100
                                                         2.494033       0.066069
                                                         0.988355       0.262898
                                                         0.344978       0.004720
                                                         0.099466       0.007748

       Atomic covalent radius [Angstrom]:                                  1.150

       Atomic van der Waals radius [Angstrom]:                             1.630

     GTH Potential information for                                   GTH-PBE-q18

       Description:                       Goedecker-Teter-Hutter pseudopotential
                                           Goedecker et al., PRB 54, 1703 (1996)
                                          Hartwigsen et al., PRB 58, 3641 (1998)
                                                      Krack, TCA 114, 145 (2005)

       Gaussian exponent of the core charge distribution:               4.081633
       Electronic configuration (s p d ...):                           4   6   8

       Parameters of the local part of the GTH pseudopotential:

                          rloc        C1          C2          C3          C4
                        0.350000    2.102166    0.648484

       Parameters of the non-local part of the GTH pseudopotential:

                   l      r(l)      h(i,j,l)

                   0    0.261295    0.622658    9.970227
                                    9.970227  -12.871507
                   1    0.224253  -11.142708   12.429566
                                   12.429566  -14.706861
                   2    0.215348  -12.628146

  2. Atomic kind: Ni_b                                  Number of atoms:      16

     Orbital Basis Set                                        DZVP-MOLOPT-SR-GTH

       Number of orbital shell sets:                                           1
       Number of orbital shells:                                               8
       Number of primitive Cartesian functions:                                6
       Number of Cartesian basis functions:                                   31
       Number of spherical basis functions:                                   26
       Norm type:                                                              2

       Normalised Cartesian orbitals:

                        Set   Shell   Orbital            Exponent    Coefficient

                          1       1    2s               10.077428      -0.684558
                                                         5.847736      -0.844524
                                                         2.494033       1.088856
                                                         0.988355       0.395503
                                                         0.344978       0.010224
                                                         0.099466      -0.003250

                          1       2    3s               10.077428       0.096747
                                                         5.847736       0.162504
                                                         2.494033      -0.297192
                                                         0.988355      -0.319752
                                                         0.344978       0.088318
                                                         0.099466       0.118587

                          1       3    4s               10.077428       0.036437
                                                         5.847736      -0.381480
                                                         2.494033       0.003759
                                                         0.988355      -1.048256
                                                         0.344978       0.855825
                                                         0.099466      -0.176350

                          1       4    3px              10.077428      -3.133913
                                                         5.847736       3.027656
                                                         2.494033       2.353227
                                                         0.988355       0.554184
                                                         0.344978       0.019462
                                                         0.099466      -0.000291
                          1       4    3py              10.077428      -3.133913
                                                         5.847736       3.027656
                                                         2.494033       2.353227
                                                         0.988355       0.554184
                                                         0.344978       0.019462
                                                         0.099466      -0.000291
                          1       4    3pz              10.077428      -3.133913
                                                         5.847736       3.027656
                                                         2.494033       2.353227
                                                         0.988355       0.554184
                                                         0.344978       0.019462
                                                         0.099466      -0.000291

                          1       5    4px              10.077428      -0.112729
                                                         5.847736      -0.114008
                                                         2.494033      -0.347303
                                                         0.988355      -0.110323
                                                         0.344978       0.154096
                                                         0.099466       0.058386
                          1       5    4py              10.077428      -0.112729
                                                         5.847736      -0.114008
                                                         2.494033      -0.347303
                                                         0.988355      -0.110323
                                                         0.344978       0.154096
                                                         0.099466       0.058386
                          1       5    4pz              10.077428      -0.112729
                                                         5.847736      -0.114008
                                                         2.494033      -0.347303
                                                         0.988355      -0.110323
                                                         0.344978       0.154096
                                                         0.099466       0.058386

                          1       6    4dx2             10.077428       8.232726
                                                         5.847736       9.105758
                                                         2.494033       2.849835
                                                         0.988355       0.554319
                                                         0.344978       0.067245
                                                         0.099466       0.001940
                          1       6    4dxy             10.077428      14.259500
                                                         5.847736      15.771636
                                                         2.494033       4.936060
                                                         0.988355       0.960109
                                                         0.344978       0.116472
                                                         0.099466       0.003360
                          1       6    4dxz             10.077428      14.259500
                                                         5.847736      15.771636
                                                         2.494033       4.936060
                                                         0.988355       0.960109
                                                         0.344978       0.116472
                                                         0.099466       0.003360
                          1       6    4dy2             10.077428       8.232726
                                                         5.847736       9.105758
                                                         2.494033       2.849835
                                                         0.988355       0.554319
                                                         0.344978       0.067245
                                                         0.099466       0.001940
                          1       6    4dyz             10.077428      14.259500
                                                         5.847736      15.771636
                                                         2.494033       4.936060
                                                         0.988355       0.960109
                                                         0.344978       0.116472
                                                         0.099466       0.003360
                          1       6    4dz2             10.077428       8.232726
                                                         5.847736       9.105758
                                                         2.494033       2.849835
                                                         0.988355       0.554319
                                                         0.344978       0.067245
                                                         0.099466       0.001940

                          1       7    5dx2             10.077428      -2.715373
                                                         5.847736      -4.020640
                                                         2.494033      -1.397569
                                                         0.988355      -0.076143
                                                         0.344978       0.033435
                                                         0.099466       0.026032
                          1       7    5dxy             10.077428      -4.703164
                                                         5.847736      -6.963952
                                                         2.494033      -2.420661
                                                         0.988355      -0.131883
                                                         0.344978       0.057911
                                                         0.099466       0.045088
                          1       7    5dxz             10.077428      -4.703164
                                                         5.847736      -6.963952
                                                         2.494033      -2.420661
                                                         0.988355      -0.131883
                                                         0.344978       0.057911
                                                         0.099466       0.045088
                          1       7    5dy2             10.077428      -2.715373
                                                         5.847736      -4.020640
                                                         2.494033      -1.397569
                                                         0.988355      -0.076143
                                                         0.344978       0.033435
                                                         0.099466       0.026032
                          1       7    5dyz             10.077428      -4.703164
                                                         5.847736      -6.963952
                                                         2.494033      -2.420661
                                                         0.988355      -0.131883
                                                         0.344978       0.057911
                                                         0.099466       0.045088
                          1       7    5dz2             10.077428      -2.715373
                                                         5.847736      -4.020640
                                                         2.494033      -1.397569
                                                         0.988355      -0.076143
                                                         0.344978       0.033435
                                                         0.099466       0.026032

                          1       8    5fx3             10.077428      -0.467694
                                                         5.847736       0.618100
                                                         2.494033       0.066069
                                                         0.988355       0.262898
                                                         0.344978       0.004720
                                                         0.099466       0.007748
                          1       8    5fx2y            10.077428      -1.045795
                                                         5.847736       1.382114
                                                         2.494033       0.147734
                                                         0.988355       0.587859
                                                         0.344978       0.010555
                                                         0.099466       0.017325
                          1       8    5fx2z            10.077428      -1.045795
                                                         5.847736       1.382114
                                                         2.494033       0.147734
                                                         0.988355       0.587859
                                                         0.344978       0.010555
                                                         0.099466       0.017325
                          1       8    5fxy2            10.077428      -1.045795
                                                         5.847736       1.382114
                                                         2.494033       0.147734
                                                         0.988355       0.587859
                                                         0.344978       0.010555
                                                         0.099466       0.017325
                          1       8    5fxyz            10.077428      -1.811371
                                                         5.847736       2.393892
                                                         2.494033       0.255883
                                                         0.988355       1.018201
                                                         0.344978       0.018282
                                                         0.099466       0.030008
                          1       8    5fxz2            10.077428      -1.045795
                                                         5.847736       1.382114
                                                         2.494033       0.147734
                                                         0.988355       0.587859
                                                         0.344978       0.010555
                                                         0.099466       0.017325
                          1       8    5fy3             10.077428      -0.467694
                                                         5.847736       0.618100
                                                         2.494033       0.066069
                                                         0.988355       0.262898
                                                         0.344978       0.004720
                                                         0.099466       0.007748
                          1       8    5fy2z            10.077428      -1.045795
                                                         5.847736       1.382114
                                                         2.494033       0.147734
                                                         0.988355       0.587859
                                                         0.344978       0.010555
                                                         0.099466       0.017325
                          1       8    5fyz2            10.077428      -1.045795
                                                         5.847736       1.382114
                                                         2.494033       0.147734
                                                         0.988355       0.587859
                                                         0.344978       0.010555
                                                         0.099466       0.017325
                          1       8    5fz3             10.077428      -0.467694
                                                         5.847736       0.618100
                                                         2.494033       0.066069
                                                         0.988355       0.262898
                                                         0.344978       0.004720
                                                         0.099466       0.007748

       Atomic covalent radius [Angstrom]:                                  1.150

       Atomic van der Waals radius [Angstrom]:                             1.630

     GTH Potential information for                                   GTH-PBE-q18

       Description:                       Goedecker-Teter-Hutter pseudopotential
                                           Goedecker et al., PRB 54, 1703 (1996)
                                          Hartwigsen et al., PRB 58, 3641 (1998)
                                                      Krack, TCA 114, 145 (2005)

       Gaussian exponent of the core charge distribution:               4.081633
       Electronic configuration (s p d ...):                           4   6   8

       Parameters of the local part of the GTH pseudopotential:

                          rloc        C1          C2          C3          C4
                        0.350000    2.102166    0.648484

       Parameters of the non-local part of the GTH pseudopotential:

                   l      r(l)      h(i,j,l)

                   0    0.261295    0.622658    9.970227
                                    9.970227  -12.871507
                   1    0.224253  -11.142708   12.429566
                                   12.429566  -14.706861
                   2    0.215348  -12.628146


 MOLECULE KIND INFORMATION


 All atoms are their own molecule, skipping detailed information


 TOTAL NUMBERS AND MAXIMUM NUMBERS

  Total number of            - Atomic kinds:                                   2
                             - Atoms:                                         32
                             - Shell sets:                                    32
                             - Shells:                                       256
                             - Primitive Cartesian functions:                192
                             - Cartesian basis functions:                    992
                             - Spherical basis functions:                    832

  Maximum angular momentum of- Orbital basis functions:                        3
                             - Local part of the GTH pseudopotential:          2
                             - Non-local part of the GTH pseudopotential:      3


 MODULE QUICKSTEP: ATOMIC COORDINATES IN ANGSTROM

   Atom Kind Element         X             Y             Z       Z(eff)     Mass
      1    1 Ni   28      0.876298      0.876298      7.370500  18.0000  58.6934
      2    1 Ni   28      0.876298      4.382298      7.370500  18.0000  58.6934
      3    1 Ni   28      2.629298      2.629298      7.370500  18.0000  58.6934
      4    1 Ni   28      2.629298      6.135298      7.370500  18.0000  58.6934
      5    1 Ni   28      4.382298      0.876298      7.370500  18.0000  58.6934
      6    1 Ni   28      4.382298      4.382298      7.370500  18.0000  58.6934
      7    1 Ni   28      6.135298      2.629298      7.370500  18.0000  58.6934
      8    1 Ni   28      6.135298      6.135298      7.370500  18.0000  58.6934
      9    2 Ni   28      0.876298      2.629298      9.123500  18.0000  58.6934
     10    2 Ni   28      0.876298      6.135298      9.123500  18.0000  58.6934
     11    2 Ni   28      2.629298      0.876298      9.123500  18.0000  58.6934
     12    2 Ni   28      2.629298      4.382298      9.123500  18.0000  58.6934
     13    2 Ni   28      4.382298      2.629298      9.123500  18.0000  58.6934
     14    2 Ni   28      4.382298      6.135298      9.123500  18.0000  58.6934
     15    2 Ni   28      6.135298      0.876298      9.123500  18.0000  58.6934
     16    2 Ni   28      6.135298      4.382298      9.123500  18.0000  58.6934
     17    2 Ni   28      0.876298      0.876298     10.876500  18.0000  58.6934
     18    2 Ni   28      0.876298      4.382298     10.876500  18.0000  58.6934
     19    2 Ni   28      2.629298      2.629298     10.876500  18.0000  58.6934
     20    2 Ni   28      2.629298      6.135298     10.876500  18.0000  58.6934
     21    2 Ni   28      4.382298      0.876298     10.876500  18.0000  58.6934
     22    2 Ni   28      4.382298      4.382298     10.876500  18.0000  58.6934
     23    2 Ni   28      6.135298      2.629298     10.876500  18.0000  58.6934
     24    2 Ni   28      6.135298      6.135298     10.876500  18.0000  58.6934
     25    1 Ni   28      0.876298      2.629298     12.629500  18.0000  58.6934
     26    1 Ni   28      0.876298      6.135298     12.629500  18.0000  58.6934
     27    1 Ni   28      2.629298      0.876298     12.629500  18.0000  58.6934
     28    1 Ni   28      2.629298      4.382298     12.629500  18.0000  58.6934
     29    1 Ni   28      4.382298      2.629298     12.629500  18.0000  58.6934
     30    1 Ni   28      4.382298      6.135298     12.629500  18.0000  58.6934
     31    1 Ni   28      6.135298      0.876298     12.629500  18.0000  58.6934
     32    1 Ni   28      6.135298      4.382298     12.629500  18.0000  58.6934



 SCF PARAMETERS         Density guess:                                    ATOMIC
                        --------------------------------------------------------
                        max_scf:                                             500
                        max_scf_history:                                       0
                        max_diis:                                              4
                        --------------------------------------------------------
                        eps_scf:                                        1.00E-04
                        eps_scf_history:                                0.00E+00
                        eps_diis:                                       1.00E-01
                        eps_eigval:                                     1.00E-05
                        --------------------------------------------------------
                        level_shift [a.u.]:                             0.000000
                        added MOs                                       534  554
                        --------------------------------------------------------
                        Mixing method:                            BROYDEN_MIXING
                                                charge density mixing in g-space
                        --------------------------------------------------------
                        Smear method:                                FERMI_DIRAC
                        Electronic temperature [K]:                       2000.0
                        Electronic temperature [a.u.]:                  6.33E-03
                        Accuracy threshold:                             1.00E-10
                        --------------------------------------------------------
                        No outer SCF

 PW_GRID| Information for grid number                                          1
 PW_GRID| Grid distributed over                                   128 processors
 PW_GRID| Real space group dimensions                                     8   16
 PW_GRID| the grid is blocked:                                               YES
 PW_GRID| Cutoff [a.u.]                                                    300.0
 PW_GRID| spherical cutoff:                                                   NO
 PW_GRID|   Bounds   1            -54      53                Points:         108
 PW_GRID|   Bounds   2            -54      53                Points:         108
 PW_GRID|   Bounds   3           -150     149                Points:         300
 PW_GRID| Volume element (a.u.^3)  0.1896E-02     Volume (a.u.^3)      6635.2971
 PW_GRID| Grid span                                                    FULLSPACE
 PW_GRID|   Distribution                         Average         Max         Min
 PW_GRID|   G-Vectors                            27337.5       28728       25272
 PW_GRID|   G-Rays                                 253.1         266         234
 PW_GRID|   Real Space Points                    27337.5       28728       25272

 PW_GRID| Information for grid number                                          2
 PW_GRID| Number of the reference grid                                         1
 PW_GRID| Grid distributed over                                   128 processors
 PW_GRID| Real space group dimensions                                     8   16
 PW_GRID| the grid is blocked:                                                NO
 PW_GRID| Cutoff [a.u.]                                                    100.0
 PW_GRID| spherical cutoff:                                                   NO
 PW_GRID|   Bounds   1            -30      29                Points:          60
 PW_GRID|   Bounds   2            -30      29                Points:          60
 PW_GRID|   Bounds   3            -90      89                Points:         180
 PW_GRID| Volume element (a.u.^3)  0.1024E-01     Volume (a.u.^3)      6635.2971
 PW_GRID| Grid span                                                    FULLSPACE
 PW_GRID|   Distribution                         Average         Max         Min
 PW_GRID|   G-Vectors                             5062.5       15960           0
 PW_GRID|   G-Rays                                  84.4         266           0
 PW_GRID|   Real Space Points                     5062.5        5760        3780

 PW_GRID| Information for grid number                                          3
 PW_GRID| Number of the reference grid                                         1
 PW_GRID| Grid distributed over                                   128 processors
 PW_GRID| Real space group dimensions                                     8   16
 PW_GRID| the grid is blocked:                                                NO
 PW_GRID| Cutoff [a.u.]                                                     33.3
 PW_GRID| spherical cutoff:                                                   NO
 PW_GRID|   Bounds   1            -18      17                Points:          36
 PW_GRID|   Bounds   2            -18      17                Points:          36
 PW_GRID|   Bounds   3            -50      49                Points:         100
 PW_GRID| Volume element (a.u.^3)  0.5120E-01     Volume (a.u.^3)      6635.2971
 PW_GRID| Grid span                                                    FULLSPACE
 PW_GRID|   Distribution                         Average         Max         Min
 PW_GRID|   G-Vectors                             1012.5        9576           0
 PW_GRID|   G-Rays                                  28.1         266           0
 PW_GRID|   Real Space Points                     1012.5        1500         800

 PW_GRID| Information for grid number                                          4
 PW_GRID| Number of the reference grid                                         1
 PW_GRID| Grid distributed over                                   128 processors
 PW_GRID| Real space group dimensions                                     8   16
 PW_GRID| the grid is blocked:                                                NO
 PW_GRID| Cutoff [a.u.]                                                     11.1
 PW_GRID| spherical cutoff:                                                   NO
 PW_GRID|   Bounds   1            -10       9                Points:          20
 PW_GRID|   Bounds   2            -10       9                Points:          20
 PW_GRID|   Bounds   3            -30      29                Points:          60
 PW_GRID| Volume element (a.u.^3)  0.2765         Volume (a.u.^3)      6635.2971
 PW_GRID| Grid span                                                    FULLSPACE
 PW_GRID|   Distribution                         Average         Max         Min
 PW_GRID|   G-Vectors                              187.5        3800           0
 PW_GRID|   G-Rays                                   9.4         190           0
 PW_GRID|   Real Space Points                      187.5         360         120

 PW_GRID| Information for grid number                                          5
 PW_GRID| Number of the reference grid                                         1
 PW_GRID| Grid distributed over                                   128 processors
 PW_GRID| Real space group dimensions                                     8   16
 PW_GRID| the grid is blocked:                                                NO
 PW_GRID| Cutoff [a.u.]                                                      3.7
 PW_GRID| spherical cutoff:                                                   NO
 PW_GRID|   Bounds   1             -6       5                Points:          12
 PW_GRID|   Bounds   2             -6       5                Points:          12
 PW_GRID|   Bounds   3            -18      17                Points:          36
 PW_GRID| Volume element (a.u.^3)   1.280         Volume (a.u.^3)      6635.2971
 PW_GRID| Grid span                                                    FULLSPACE
 PW_GRID|   Distribution                         Average         Max         Min
 PW_GRID|   G-Vectors                               40.5        1296           0
 PW_GRID|   G-Rays                                   3.4         108           0
 PW_GRID|   Real Space Points                       40.5          72           0

 POISSON| Solver                                                        PERIODIC
 POISSON| Periodicity                                                        XYZ

 RS_GRID| Information for grid number                                          1
 RS_GRID|   Bounds   1            -54      53                Points:         108
 RS_GRID|   Bounds   2            -54      53                Points:         108
 RS_GRID|   Bounds   3           -150     149                Points:         300
 RS_GRID| Real space distribution over                                  8 groups
 RS_GRID| Real space distribution along direction                              2
 RS_GRID| Border size                                                         28
 RS_GRID| Real space distribution over                                 16 groups
 RS_GRID| Real space distribution along direction                              3
 RS_GRID| Border size                                                         28
 RS_GRID|   Distribution                         Average         Max         Min
 RS_GRID|   Planes                                  69.5          70          69
 RS_GRID|   Distribution                         Average         Max         Min
 RS_GRID|   Planes                                  74.8          75          74

 RS_GRID| Information for grid number                                          2
 RS_GRID|   Bounds   1            -30      29                Points:          60
 RS_GRID|   Bounds   2            -30      29                Points:          60
 RS_GRID|   Bounds   3            -90      89                Points:         180
 RS_GRID| Real space fully replicated
 RS_GRID| Group size                                                           1

 RS_GRID| Information for grid number                                          3
 RS_GRID|   Bounds   1            -18      17                Points:          36
 RS_GRID|   Bounds   2            -18      17                Points:          36
 RS_GRID|   Bounds   3            -50      49                Points:         100
 RS_GRID| Real space fully replicated
 RS_GRID| Group size                                                           1

 RS_GRID| Information for grid number                                          4
 RS_GRID|   Bounds   1            -10       9                Points:          20
 RS_GRID|   Bounds   2            -10       9                Points:          20
 RS_GRID|   Bounds   3            -30      29                Points:          60
 RS_GRID| Real space fully replicated
 RS_GRID| Group size                                                           1

 RS_GRID| Information for grid number                                          5
 RS_GRID|   Bounds   1             -6       5                Points:          12
 RS_GRID|   Bounds   2             -6       5                Points:          12
 RS_GRID|   Bounds   3            -18      17                Points:          36
 RS_GRID| Real space fully replicated
 RS_GRID| Group size                                                           1

 Spin 1

 Number of electrons:                                                        298.000
 Number of occupied orbitals:                                                298
 Number of molecular orbitals:                                               832

 Spin 2

 Number of electrons:                                                        278.000
 Number of occupied orbitals:                                                278
 Number of molecular orbitals:                                               832

 Number of orbital functions:                                                832
 Number of independent orbital functions:                                    832

 Extrapolation method: initial_guess

 Atomic guess: The first density matrix is obtained in terms of atomic orbitals
               and electronic configurations assigned to each atomic kind

 Guess for atomic kind: Ni_i

 Electronic structure
    Total number of core electrons                                         10.00
    Total number of valence electrons                                      18.00
    Total number of electrons                                              28.00
    Multiplicity                                                         doublet
    Alpha Electrons
    S   [  1.00  1.00] 1.00  1.00
    P   [  3.00] 3.00
    D      4.30
    Beta Electrons
    S   [  1.00  1.00] 1.00  1.00
    P   [  3.00] 3.00
    D      3.70


 *******************************************************************************
                  Iteration          Convergence                     Energy [au]
 *******************************************************************************
                          1         1.51708                    -167.066118163909
                          2         15.1863                    -156.630620063797
                          3         2.29518                    -168.318250074867
                          4        0.198051                    -168.608832938310
                          5        0.762142E-01                -168.611735578094
                          6        0.143308E-01                -168.612261389358
                          7        0.453828E-02                -168.612313512258
                          8        0.436836E-02                -168.612313369107
                          9        0.696306E-03                -168.612315351147
                         10        0.226261E-02                -168.612315025774
                         11        0.995757E-03                -168.612315268998
                         12        0.170432E-03                -168.612315393602
                         13        0.195344E-03                -168.612315392852
                         14        0.147467E-03                -168.612315396817
                         15        0.185080E-03                -168.612315392680
                         16        0.969041E-04                -168.612315398729
                         17        0.991109E-04                -168.612315398505
                         18        0.433236E-04                -168.612315399326
                         19        0.269198E-04                -168.612315399408
                         20        0.109432E-04                -168.612315399455
                         21        0.443439E-05                -168.612315399480
                         22        0.816741E-05                -168.612315399471
                         23        0.470984E-05                -168.612315399481
                         24        0.245833E-05                -168.612315399483
                         25        0.100766E-05                -168.612315399484
                         26        0.417991E-06                -168.612315399483

 Energy components [Hartree]           Total Energy ::         -168.612315399483
                                        Band Energy ::          -26.569179124340
                                     Kinetic Energy ::           97.305065650248
                                   Potential Energy ::         -265.917381049731
                                      Virial (-V/T) ::            2.732821557364
                                        Core Energy ::         -299.567011526383
                                          XC Energy ::          -16.225783039068
                                     Coulomb Energy ::          147.180479165968
                       Total Pseudopotential Energy ::         -396.958417944166
                       Local Pseudopotential Energy ::         -362.646534962999
                    Nonlocal Pseudopotential Energy ::          -34.311882981167
                                        Confinement ::            0.863407675347

 Orbital energies  State     Spin  L     Occupation   Energy[a.u.]    Energy[eV]

                       1    alpha  0          1.000      -4.170511   -113.485387
                       2    alpha  0          1.000      -0.181081     -4.927469
                       1     beta  0          1.000      -4.143060   -112.738394
                       2     beta  0          1.000      -0.176746     -4.809500

                       1    alpha  1          3.000      -2.576642    -70.114003
                       1     beta  1          3.000      -2.549934    -69.387228

                       1    alpha  2          4.300      -0.325251     -8.850518
                       1     beta  2          3.700      -0.302561     -8.233099


 Total Electron Density at R=0:                                         0.030426

 Guess for atomic kind: Ni_b

 Electronic structure
    Total number of core electrons                                         10.00
    Total number of valence electrons                                      18.00
    Total number of electrons                                              28.00
    Multiplicity                                                         doublet
    Alpha Electrons
    S   [  1.00  1.00] 1.00  1.00
    P   [  3.00] 3.00
    D      4.33
    Beta Electrons
    S   [  1.00  1.00] 1.00  1.00
    P   [  3.00] 3.00
    D      3.67


 *******************************************************************************
                  Iteration          Convergence                     Energy [au]
 *******************************************************************************
                          1         1.51718                    -167.066746262123
                          2         15.2884                    -156.636406710871
                          3         2.31479                    -168.318781986155
                          4        0.202411                    -168.609348309373
                          5        0.788344E-01                -168.612282415035
                          6        0.158195E-01                -168.612842596817
                          7        0.374742E-02                -168.612904948696
                          8        0.380597E-02                -168.612904764841
                          9        0.443375E-03                -168.612906253750
                         10        0.200944E-02                -168.612905985025
                         11        0.811031E-03                -168.612906172037
                         12        0.164311E-03                -168.612906264457
                         13        0.199792E-03                -168.612906264414
                         14        0.159107E-03                -168.612906268209
                         15        0.186969E-03                -168.612906265176
                         16        0.484377E-04                -168.612906271371
                         17        0.739678E-04                -168.612906271092
                         18        0.287902E-04                -168.612906271499
                         19        0.180393E-04                -168.612906271534
                         20        0.100435E-04                -168.612906271558
                         21        0.392289E-05                -168.612906271567
                         22        0.481763E-05                -168.612906271564
                         23        0.247198E-05                -168.612906271569
                         24        0.689532E-06                -168.612906271570

 Energy components [Hartree]           Total Energy ::         -168.612906271570
                                        Band Energy ::          -26.569459894552
                                     Kinetic Energy ::           97.305862686776
                                   Potential Energy ::         -265.918768958347
                                      Virial (-V/T) ::            2.732813436065
                                        Core Energy ::         -299.567476745197
                                          XC Energy ::          -16.226459019486
                                     Coulomb Energy ::          147.181029493113
                       Total Pseudopotential Energy ::         -396.959680289794
                       Local Pseudopotential Energy ::         -362.647379324157
                    Nonlocal Pseudopotential Energy ::          -34.312300965637
                                        Confinement ::            0.863408578211

 Orbital energies  State     Spin  L     Occupation   Energy[a.u.]    Energy[eV]

                       1    alpha  0          1.000      -4.171592   -113.514781
                       2    alpha  0          1.000      -0.181256     -4.932231
                       1     beta  0          1.000      -4.141852   -112.705535
                       2     beta  0          1.000      -0.176559     -4.804427

                       1    alpha  1          3.000      -2.577693    -70.142604
                       1     beta  1          3.000      -2.548759    -69.355260

                       1    alpha  2          4.325      -0.326147     -8.874911
                       1     beta  2          3.675      -0.301567     -8.206045


 Total Electron Density at R=0:                                         0.030424

 Spin 1
 Re-scaling the density matrix to get the right number of electrons for spin 1
                  # Electrons              Trace(P)               Scaling factor
                        298.000             298.000                        1.000

 Spin 2
 Re-scaling the density matrix to get the right number of electrons for spin 2
                  # Electrons              Trace(P)               Scaling factor
                        278.000             278.000                        1.000


 SCF WAVEFUNCTION OPTIMIZATION

  Step     Update method      Time    Convergence         Total energy    Change
  ------------------------------------------------------------------------------
     1 NoMix/Diag. 0.80E-01    1.4     0.87354004     -5426.4505909240 -5.43E+03
     2 Broy./Diag. 0.80E-01    1.5     0.01581188     -5316.6062890966  1.10E+02
     3 Broy./Diag. 0.80E-01    1.5     0.05186375     -5352.5868629328 -3.60E+01
     4 Broy./Diag. 0.80E-01    1.5     0.00356077     -5415.9152199922 -6.33E+01
     5 Broy./Diag. 0.80E-01    1.5     0.01962459     -5414.6693583257  1.25E+00
     6 Broy./Diag. 0.80E-01    1.5     0.00365860     -5418.2923903204 -3.62E+00
     7 Broy./Diag. 0.80E-01    1.5     0.00614471     -5416.6204766400  1.67E+00
     8 Broy./Diag. 0.80E-01    1.5     0.00619746     -5417.5334297381 -9.13E-01
     9 Broy./Diag. 0.80E-01    1.5     0.00242142     -5417.2362178242  2.97E-01
    10 Broy./Diag. 0.80E-01    1.5     0.00158468     -5417.5513707251 -3.15E-01
    11 Broy./Diag. 0.80E-01    1.5     0.00302578     -5417.0678124474  4.84E-01
    12 Broy./Diag. 0.80E-01    1.5     0.00162905     -5417.4291961086 -3.61E-01
    13 Broy./Diag. 0.80E-01    1.5     0.00268840     -5417.5025530533 -7.34E-02
    14 Broy./Diag. 0.80E-01    1.5     0.00567705     -5417.5863451454 -8.38E-02
    15 Broy./Diag. 0.80E-01    1.5     0.00308663     -5417.7383426041 -1.52E-01
    16 Broy./Diag. 0.80E-01    1.5     0.00086192     -5417.9854687899 -2.47E-01
    17 Broy./Diag. 0.80E-01    1.5     0.00303063     -5417.7829921898  2.02E-01
    18 Broy./Diag. 0.80E-01    1.5     0.00861018     -5417.7653875768  1.76E-02
    19 Broy./Diag. 0.80E-01    1.5     0.01079445     -5417.7580932479  7.29E-03
    20 Broy./Diag. 0.80E-01    1.5     0.00178614     -5417.7274516112  3.06E-02
[...]
   132 Broy./Diag. 0.80E-01    1.5     0.00233525     -5417.7628289423  4.37E-03
   133 Broy./Diag. 0.80E-01    1.5     0.00130916     -5417.7375099870  2.53E-02
   134 Broy./Diag. 0.80E-01    1.5     0.00407657     -5417.7287580808  8.75E-03
   135 Broy./Diag. 0.80E-01    1.5     0.00233362     -5417.8057570963 -7.70E-02
   136 Broy./Diag. 0.80E-01    1.5     0.01041943     -5417.8096515249 -3.89E-03
   137 Broy./Diag. 0.80E-01    1.5     0.01915079     -5417.8008906868  8.76E-03
   138 Broy./Diag. 0.80E-01    1.5     0.00101838     -5417.8150928190 -1.42E-02
   139 Broy./Diag. 0.80E-01    1.5     0.00390010     -5417.8368740216 -2.18E-02
   140 Broy./Diag. 0.80E-01    1.5     0.00172634     -5417.8348194690  2.05E-03
   141 Broy./Diag. 0.80E-01    1.5     0.00382471     -5417.8149929537  1.98E-02
   142 Broy./Diag. 0.80E-01    1.5     0.00283607     -5417.8025464109  1.24E-02
   143 Broy./Diag. 0.80E-01    1.5     0.00800523     -5417.7819308512  2.06E-02
   144 Broy./Diag. 0.80E-01    1.5     0.01011972     -5417.7748636809  7.07E-03
   145 Broy./Diag. 0.80E-01    1.5     0.00231380     -5417.7476089237  2.73E-02
   146 Broy./Diag. 0.80E-01    1.5     0.00094678     -5417.7501952153 -2.59E-03
   147 Broy./Diag. 0.80E-01    1.5     0.00064538     -5417.7502151630 -1.99E-05
   148 Broy./Diag. 0.80E-01    1.5     0.00524029     -5417.7721242590 -2.19E-02
   149 Broy./Diag. 0.80E-01    1.5     0.00045791     -5417.7580342218  1.41E-02
   150 Broy./Diag. 0.80E-01    1.5     0.00142025     -5417.7653010306 -7.27E-03
   151 Broy./Diag. 0.80E-01    1.5     0.00166646     -5417.7365735571  2.87E-02
   152 Broy./Diag. 0.80E-01    1.5     0.00078818     -5417.7508012163 -1.42E-02
   153 Broy./Diag. 0.80E-01    1.5     0.00112506     -5417.7529666508 -2.17E-03
   154 Broy./Diag. 0.80E-01    1.5     0.00065035     -5417.7429796651  9.99E-03
   155 Broy./Diag. 0.80E-01    1.5     0.00262454     -5417.7477694483 -4.79E-03
   156 Broy./Diag. 0.80E-01    1.5     0.00200577     -5417.7728112139 -2.50E-02
   157 Broy./Diag. 0.80E-01    1.5     0.00071402     -5417.7493214829  2.35E-02
   158 Broy./Diag. 0.80E-01    1.5     0.00472315     -5417.7737244832 -2.44E-02
   159 Broy./Diag. 0.80E-01    1.5     0.00183167     -5417.8028475621 -2.91E-02
   160 Broy./Diag. 0.80E-01    1.5     0.00025676     -5417.7930658356  9.78E-03
   161 Broy./Diag. 0.80E-01    1.5     0.00352215     -5417.7863449392  6.72E-03
   162 Broy./Diag. 0.80E-01    1.5     0.00249644     -5417.7909712018 -4.63E-03
   163 Broy./Diag. 0.80E-01    1.5     0.00238424     -5417.7789797938  1.20E-02
   164 Broy./Diag. 0.80E-01    1.5     0.00533733     -5417.8031578533 -2.42E-02
   165 Broy./Diag. 0.80E-01    1.5     0.00582486     -5417.7987186795  4.44E-03
   166 Broy./Diag. 0.80E-01    1.5     0.00037874     -5417.7791764334  1.95E-02
   167 Broy./Diag. 0.80E-01    1.5     0.00077500     -5417.7717444638  7.43E-03
   168 Broy./Diag. 0.80E-01    1.5     0.00244780     -5417.7629549484  8.79E-03
   169 Broy./Diag. 0.80E-01    1.5     0.00139883     -5417.7943028360 -3.13E-02
   170 Broy./Diag. 0.80E-01    1.5     0.00102784     -5417.7719618905  2.23E-02
   171 Broy./Diag. 0.80E-01    1.5     0.01133121     -5417.7786840526 -6.72E-03
   172 Broy./Diag. 0.80E-01    1.5     0.00374120     -5417.8431638162 -6.45E-02
   173 Broy./Diag. 0.80E-01    1.5     0.00175773     -5417.7882163636  5.49E-02
   174 Broy./Diag. 0.80E-01    1.5     0.00322159     -5417.8032002739 -1.50E-02
   175 Broy./Diag. 0.80E-01    1.5     0.00547966     -5417.8248625721 -2.17E-02
   176 Broy./Diag. 0.80E-01    1.5     0.00486183     -5417.8595237250 -3.47E-02
   177 Broy./Diag. 0.80E-01    1.5     0.00244078     -5417.8568347979  2.69E-03
   178 Broy./Diag. 0.80E-01    1.5     0.00389665     -5417.8506199552  6.21E-03
   179 Broy./Diag. 0.80E-01    1.5     0.00090454     -5417.7888600339  6.18E-02
   180 Broy./Diag. 0.80E-01    1.5     0.00141384     -5417.8010546916 -1.22E-02
   181 Broy./Diag. 0.80E-01    1.5     0.00585766     -5417.7987936307  2.26E-03
   182 Broy./Diag. 0.80E-01    1.5     0.00647395     -5417.7777057432  2.11E-02
   183 Broy./Diag. 0.80E-01    1.5     0.00253370     -5417.7443532331  3.34E-02
   184 Broy./Diag. 0.80E-01    1.5     0.00654702     -5417.7380997438  6.25E-03
   185 Broy./Diag. 0.80E-01    1.5     0.00233551     -5417.7781057327 -4.00E-02
   186 Broy./Diag. 0.80E-01    1.5     0.00243204     -5417.7537079726  2.44E-02
   187 Broy./Diag. 0.80E-01    1.5     0.00122202     -5417.7222403334  3.15E-02
   188 Broy./Diag. 0.80E-01    1.5     0.00422818     -5417.6986384870  2.36E-02
   189 Broy./Diag. 0.80E-01    1.5     0.00266027     -5417.7011142748 -2.48E-03
   190 Broy./Diag. 0.80E-01    1.5     0.00142042     -5417.6351779339  6.59E-02
   191 Broy./Diag. 0.80E-01    1.5     0.00206014     -5417.6306870573  4.49E-03
   192 Broy./Diag. 0.80E-01    1.5     0.00256450     -5417.6301416730  5.45E-04
   193 Broy./Diag. 0.80E-01    1.5     0.00117528     -5417.6118584706  1.83E-02
   194 Broy./Diag. 0.80E-01    1.5     0.00300543     -5417.5000890356  1.12E-01
   195 Broy./Diag. 0.80E-01    1.5     0.00421020     -5417.4744730339  2.56E-02
   196 Broy./Diag. 0.80E-01    1.5     0.00813274     -5417.4599822532  1.45E-02
   197 Broy./Diag. 0.80E-01    1.5     0.00375583     -5417.4092055021  5.08E-02
   198 Broy./Diag. 0.80E-01    1.5     0.00396077     -5417.4698192832 -6.06E-02
   199 Broy./Diag. 0.80E-01    1.5     0.00082362     -5417.5144822386 -4.47E-02
   200 Broy./Diag. 0.80E-01    1.5     0.00377176     -5417.5234936382 -9.01E-03
   201 Broy./Diag. 0.80E-01    1.5     0.00407087     -5417.6006392004 -7.71E-02
   202 Broy./Diag. 0.80E-01    1.5     0.00132762     -5417.6636625730 -6.30E-02
   203 Broy./Diag. 0.80E-01    1.5     0.00127263     -5417.7077853426 -4.41E-02
   204 Broy./Diag. 0.80E-01    1.5     0.00208676     -5417.7310590785 -2.33E-02
   205 Broy./Diag. 0.80E-01    1.5     0.00453147     -5417.7734839968 -4.24E-02
   206 Broy./Diag. 0.80E-01    1.5     0.00970357     -5417.7508407673  2.26E-02
   207 Broy./Diag. 0.80E-01    1.5     0.00274543     -5417.8069871092 -5.61E-02
   208 Broy./Diag. 0.80E-01    1.5     0.00745950     -5417.8339585688 -2.70E-02
   209 Broy./Diag. 0.80E-01    1.5     0.00042289     -5417.7855837840  4.84E-02
   210 Broy./Diag. 0.80E-01    1.5     0.00077662     -5417.7758464527  9.74E-03
   211 Broy./Diag. 0.80E-01    1.5     0.00565664     -5417.7771446893 -1.30E-03
   212 Broy./Diag. 0.80E-01    1.5     0.00265642     -5417.7276423077  4.95E-02
   213 Broy./Diag. 0.80E-01    1.5     0.00567905     -5417.7592961544 -3.17E-02
   214 Broy./Diag. 0.80E-01    1.5     0.00257993     -5417.7186298183  4.07E-02
   215 Broy./Diag. 0.80E-01    1.5     0.00455977     -5417.7336607634 -1.50E-02
   216 Broy./Diag. 0.80E-01    1.5     0.00433787     -5417.7692897763 -3.56E-02
   217 Broy./Diag. 0.80E-01    1.5     0.00363214     -5417.7673191194  1.97E-03
   218 Broy./Diag. 0.80E-01    1.5     0.01817476     -5417.7025273468  6.48E-02
   219 Broy./Diag. 0.80E-01    1.5     0.01062154     -5417.5017420059  2.01E-01
   220 Broy./Diag. 0.80E-01    1.5     0.00568549     -5417.6664589386 -1.65E-01
   221 Broy./Diag. 0.80E-01    1.5     0.00686606     -5417.6643958591  2.06E-03
   222 Broy./Diag. 0.80E-01    1.5     0.00256389     -5417.4418150604  2.23E-01
   223 Broy./Diag. 0.80E-01    1.5     0.00472950     -5417.4513661980 -9.55E-03
   224 Broy./Diag. 0.80E-01    1.5     0.00136885     -5417.5538791055 -1.03E-01
   225 Broy./Diag. 0.80E-01    1.5     0.00252803     -5417.5600771918 -6.20E-03
   226 Broy./Diag. 0.80E-01    1.5     0.00460182     -5417.5836713430 -2.36E-02
   227 Broy./Diag. 0.80E-01    1.5     0.00984658     -5417.5533665769  3.03E-02
   228 Broy./Diag. 0.80E-01    1.5     0.00800221     -5417.6642119592 -1.11E-01
   229 Broy./Diag. 0.80E-01    1.5     0.00218973     -5417.7058809127 -4.17E-02
   230 Broy./Diag. 0.80E-01    1.5     0.00513012     -5417.6687504134  3.71E-02
   231 Broy./Diag. 0.80E-01    1.5     0.00855198     -5417.5676005670  1.01E-01
   232 Broy./Diag. 0.80E-01    1.5     0.00248775     -5417.7058943657 -1.38E-01
   233 Broy./Diag. 0.80E-01    1.5     0.00312619     -5417.6489794313  5.69E-02
   234 Broy./Diag. 0.80E-01    1.5     0.00301561     -5417.7087078610 -5.97E-02
   235 Broy./Diag. 0.80E-01    1.5     0.00891736     -5417.6511843001  5.75E-02
   236 Broy./Diag. 0.80E-01    1.5     0.00081675     -5417.5463754052  1.05E-01
   237 Broy./Diag. 0.80E-01    1.5     0.00203819     -5417.5421192398  4.26E-03
   238 Broy./Diag. 0.80E-01    1.5     0.00254980     -5417.5544893440 -1.24E-02
   239 Broy./Diag. 0.80E-01    1.5     0.00092558     -5417.4704931573  8.40E-02
   240 Broy./Diag. 0.80E-01    1.5     0.00474715     -5417.5062627538 -3.58E-02
   241 Broy./Diag. 0.80E-01    1.5     0.00497647     -5417.5676040559 -6.13E-02
   242 Broy./Diag. 0.80E-01    1.5     0.00445605     -5417.6359715356 -6.84E-02
   243 Broy./Diag. 0.80E-01    1.5     0.00720037     -5417.6534655246 -1.75E-02
   244 Broy./Diag. 0.80E-01    1.5     0.00313970     -5417.5238910126  1.30E-01
   245 Broy./Diag. 0.80E-01    1.5     0.00659140     -5417.4618106061  6.21E-02
   246 Broy./Diag. 0.80E-01    1.5     0.00271032     -5417.4267609387  3.50E-02
   247 Broy./Diag. 0.80E-01    1.5     0.00467024     -5417.4353043563 -8.54E-03
   248 Broy./Diag. 0.80E-01    1.5     0.00202242     -5417.6422204533 -2.07E-01
   249 Broy./Diag. 0.80E-01    1.5     0.00210031     -5417.6700829328 -2.79E-02
   250 Broy./Diag. 0.80E-01    1.5     0.00156496     -5417.6524631038  1.76E-02
   251 Broy./Diag. 0.80E-01    1.5     0.00122542     -5417.7282294082 -7.58E-02
   252 Broy./Diag. 0.80E-01    1.5     0.00223555     -5417.7504334193 -2.22E-02
   253 Broy./Diag. 0.80E-01    1.5     0.00104748     -5417.8245819463 -7.41E-02
   254 Broy./Diag. 0.80E-01    1.5     0.00073977     -5417.8392366859 -1.47E-02
   255 Broy./Diag. 0.80E-01    1.5     0.00379897     -5417.8381229609  1.11E-03
   256 Broy./Diag. 0.80E-01    1.5     0.00131290     -5417.9342875914 -9.62E-02
   257 Broy./Diag. 0.80E-01    1.5     0.00100521     -5417.9410577072 -6.77E-03
   258 Broy./Diag. 0.80E-01    1.5     0.00150207     -5417.8815253145  5.95E-02
   259 Broy./Diag. 0.80E-01    1.5     0.00603670     -5417.7750664503  1.06E-01
   260 Broy./Diag. 0.80E-01    1.5     0.00738748     -5417.7233203855  5.17E-02
   261 Broy./Diag. 0.80E-01    1.5     0.00808493     -5417.6490464590  7.43E-02
   262 Broy./Diag. 0.80E-01    1.5     0.00329201     -5417.7515425911 -1.02E-01
   263 Broy./Diag. 0.80E-01    1.5     0.00255618     -5417.7844908525 -3.29E-02
   264 Broy./Diag. 0.80E-01    1.5     0.00773367     -5417.7586368627  2.59E-02
   265 Broy./Diag. 0.80E-01    1.5     0.00084327     -5417.7730899272 -1.45E-02
   266 Broy./Diag. 0.80E-01    1.5     0.00135518     -5417.7865499903 -1.35E-02
   267 Broy./Diag. 0.80E-01    1.5     0.00426713     -5417.7123512523  7.42E-02
   268 Broy./Diag. 0.80E-01    1.5     0.01092903     -5417.6279511501  8.44E-02
   269 Broy./Diag. 0.80E-01    1.5     0.00154273     -5417.6967420303 -6.88E-02
   270 Broy./Diag. 0.80E-01    1.5     0.01125831     -5417.7505453895 -5.38E-02
   271 Broy./Diag. 0.80E-01    1.5     0.01179187     -5417.8528582683 -1.02E-01
   272 Broy./Diag. 0.80E-01    1.5     0.02213140     -5417.6417809912  2.11E-01
   273 Broy./Diag. 0.80E-01    1.5     0.00388751     -5417.7908890659 -1.49E-01
   274 Broy./Diag. 0.80E-01    1.5     0.00639021     -5417.7883598623  2.53E-03
   275 Broy./Diag. 0.80E-01    1.5     0.00286115     -5417.7649620589  2.34E-02
   276 Broy./Diag. 0.80E-01    1.5     0.00704385     -5417.7864033052 -2.14E-02
   277 Broy./Diag. 0.80E-01    1.5     0.00333454     -5417.7513176055  3.51E-02
   278 Broy./Diag. 0.80E-01    1.5     0.00696528     -5417.7590888314 -7.77E-03
   279 Broy./Diag. 0.80E-01    1.5     0.01156414     -5417.7148086171  4.43E-02
   280 Broy./Diag. 0.80E-01    1.5     0.02314407     -5417.8143180678 -9.95E-02
   281 Broy./Diag. 0.80E-01    1.5     0.00456884     -5417.6001562403  2.14E-01
   282 Broy./Diag. 0.80E-01    1.5     0.01835688     -5417.5430622078  5.71E-02
   283 Broy./Diag. 0.80E-01    1.5     0.01050284     -5417.5476191505 -4.56E-03
   284 Broy./Diag. 0.80E-01    1.5     0.00181087     -5417.5480795489 -4.60E-04
   285 Broy./Diag. 0.80E-01    1.5     0.00577897     -5417.5656484963 -1.76E-02
   286 Broy./Diag. 0.80E-01    1.5     0.00102404     -5417.6399390673 -7.43E-02
   287 Broy./Diag. 0.80E-01    1.5     0.00435883     -5417.6288523424  1.11E-02
   288 Broy./Diag. 0.80E-01    1.5     0.00061373     -5417.6604297338 -3.16E-02
   289 Broy./Diag. 0.80E-01    1.5     0.00108131     -5417.6323098706  2.81E-02
   290 Broy./Diag. 0.80E-01    1.5     0.00150505     -5417.5892329474  4.31E-02
   291 Broy./Diag. 0.80E-01    1.5     0.00077932     -5417.5730236597  1.62E-02
   292 Broy./Diag. 0.80E-01    1.5     0.00965595     -5417.5281525786  4.49E-02
   293 Broy./Diag. 0.80E-01    1.5     0.00140433     -5417.5585103957 -3.04E-02
   294 Broy./Diag. 0.80E-01    1.5     0.00429646     -5417.6189575686 -6.04E-02
   295 Broy./Diag. 0.80E-01    1.5     0.01129452     -5417.6294084123 -1.05E-02
   296 Broy./Diag. 0.80E-01    1.5     0.00293140     -5417.5657177069  6.37E-02
   297 Broy./Diag. 0.80E-01    1.5     0.00295193     -5417.5521771558  1.35E-02
   298 Broy./Diag. 0.80E-01    1.5     0.00834285     -5417.5675620250 -1.54E-02
   299 Broy./Diag. 0.80E-01    1.5     0.00239307     -5417.6228890782 -5.53E-02
   300 Broy./Diag. 0.80E-01    1.5     0.00165003     -5417.6130978904  9.79E-03
   301 Broy./Diag. 0.80E-01    1.5     0.00478724     -5417.5822815411  3.08E-02
   302 Broy./Diag. 0.80E-01    1.5     0.00759272     -5417.5812719355  1.01E-03
   303 Broy./Diag. 0.80E-01    1.5     0.00247187     -5417.6594109760 -7.81E-02
   304 Broy./Diag. 0.80E-01    1.5     0.00657532     -5417.6686919413 -9.28E-03
   305 Broy./Diag. 0.80E-01    1.5     0.00329789     -5417.6911161026 -2.24E-02
   306 Broy./Diag. 0.80E-01    1.5     0.00202258     -5417.7111452179 -2.00E-02
   307 Broy./Diag. 0.80E-01    1.5     0.00378833     -5417.7432480449 -3.21E-02
   308 Broy./Diag. 0.80E-01    1.5     0.00091022     -5417.7975545807 -5.43E-02
   309 Broy./Diag. 0.80E-01    1.5     0.00293746     -5417.7803259801  1.72E-02
   310 Broy./Diag. 0.80E-01    1.5     0.00087301     -5417.7956784657 -1.54E-02
   311 Broy./Diag. 0.80E-01    1.5     0.00227893     -5417.8099582332 -1.43E-02
   312 Broy./Diag. 0.80E-01    1.5     0.00345119     -5417.8267739641 -1.68E-02
   313 Broy./Diag. 0.80E-01    1.5     0.00172187     -5417.8157177438  1.11E-02
   314 Broy./Diag. 0.80E-01    1.5     0.00142674     -5417.8078645776  7.85E-03
   315 Broy./Diag. 0.80E-01    1.5     0.00014873     -5417.8193408582 -1.15E-02
   316 Broy./Diag. 0.80E-01    1.5     0.00094904     -5417.8173258152  2.02E-03
   317 Broy./Diag. 0.80E-01    1.5     0.00803560     -5417.8328830951 -1.56E-02
   318 Broy./Diag. 0.80E-01    1.5     0.00218355     -5417.8438784137 -1.10E-02
   319 Broy./Diag. 0.80E-01    1.5     0.00335395     -5417.8223307570  2.15E-02
   320 Broy./Diag. 0.80E-01    1.5     0.00176830     -5417.8408817922 -1.86E-02
   321 Broy./Diag. 0.80E-01    1.5     0.00526872     -5417.8636550436 -2.28E-02
   322 Broy./Diag. 0.80E-01    1.5     0.01138845     -5417.8724722023 -8.82E-03
   323 Broy./Diag. 0.80E-01    1.5     0.00576194     -5417.8848211095 -1.23E-02
   324 Broy./Diag. 0.80E-01    1.5     0.00234368     -5417.8745723020  1.02E-02
   325 Broy./Diag. 0.80E-01    1.5     0.00329536     -5417.8646120244  9.96E-03
   326 Broy./Diag. 0.80E-01    1.5     0.00750353     -5417.8696267989 -5.01E-03
   327 Broy./Diag. 0.80E-01    1.5     0.01000357     -5417.9087671362 -3.91E-02
   328 Broy./Diag. 0.80E-01    1.5     0.01659608     -5417.8137552252  9.50E-02
   329 Broy./Diag. 0.80E-01    1.5     0.00617264     -5417.9625444359 -1.49E-01
   330 Broy./Diag. 0.80E-01    1.5     0.00093880     -5417.9804106611 -1.79E-02
   331 Broy./Diag. 0.80E-01    1.5     0.00392947     -5417.9684003409  1.20E-02
   332 Broy./Diag. 0.80E-01    1.5     0.00626378     -5417.9191082849  4.93E-02
   333 Broy./Diag. 0.80E-01    1.5     0.00416186     -5417.9836380982 -6.45E-02
   334 Broy./Diag. 0.80E-01    1.5     0.03515867     -5417.9450571872  3.86E-02
   335 Broy./Diag. 0.80E-01    1.5     0.00441357     -5417.9036102045  4.14E-02
   336 Broy./Diag. 0.80E-01    1.5     0.02285394     -5417.8393766176  6.42E-02
   337 Broy./Diag. 0.80E-01    1.5     0.01449230     -5417.5719198969  2.67E-01
   338 Broy./Diag. 0.80E-01    1.5     0.00674395     -5417.6316214284 -5.97E-02
   339 Broy./Diag. 0.80E-01    1.5     0.00315240     -5417.6340796559 -2.46E-03
   340 Broy./Diag. 0.80E-01    1.5     0.00415260     -5417.6498734940 -1.58E-02
   341 Broy./Diag. 0.80E-01    1.5     0.00484000     -5417.6182876597  3.16E-02
   342 Broy./Diag. 0.80E-01    1.5     0.00193729     -5417.6044523593  1.38E-02
   343 Broy./Diag. 0.80E-01    1.5     0.00676947     -5417.5940408140  1.04E-02
   344 Broy./Diag. 0.80E-01    1.5     0.00147994     -5417.7812856477 -1.87E-01
   345 Broy./Diag. 0.80E-01    1.5     0.00613932     -5417.7430626286  3.82E-02
   346 Broy./Diag. 0.80E-01    1.5     0.00833989     -5417.8540115567 -1.11E-01
   347 Broy./Diag. 0.80E-01    1.5     0.00534324     -5417.8722627228 -1.83E-02
   348 Broy./Diag. 0.80E-01    1.5     0.00790684     -5417.8862947821 -1.40E-02
   349 Broy./Diag. 0.80E-01    1.5     0.00440008     -5417.8577103523  2.86E-02
   350 Broy./Diag. 0.80E-01    1.5     0.00440146     -5417.8028264487  5.49E-02
   351 Broy./Diag. 0.80E-01    1.5     0.00592869     -5417.8129862601 -1.02E-02
   352 Broy./Diag. 0.80E-01    1.5     0.00365806     -5417.7056221591  1.07E-01
   353 Broy./Diag. 0.80E-01    1.5     0.00557319     -5417.7209729069 -1.54E-02
   354 Broy./Diag. 0.80E-01    1.5     0.00375530     -5417.7373371098 -1.64E-02
   355 Broy./Diag. 0.80E-01    1.5     0.00832630     -5417.7061098148  3.12E-02
   356 Broy./Diag. 0.80E-01    1.5     0.00476838     -5417.6158199249  9.03E-02
   357 Broy./Diag. 0.80E-01    1.5     0.00597184     -5417.6192566929 -3.44E-03
   358 Broy./Diag. 0.80E-01    1.5     0.00353265     -5417.6348626262 -1.56E-02
   359 Broy./Diag. 0.80E-01    1.5     0.00254255     -5417.6320119222  2.85E-03
   360 Broy./Diag. 0.80E-01    1.5     0.01296336     -5417.5983582904  3.37E-02
   361 Broy./Diag. 0.80E-01    1.5     0.01056801     -5417.5259211810  7.24E-02
   362 Broy./Diag. 0.80E-01    1.5     0.00330347     -5417.6322635260 -1.06E-01
   363 Broy./Diag. 0.80E-01    1.5     0.00493055     -5417.6237097260  8.55E-03
   364 Broy./Diag. 0.80E-01    1.5     0.00436659     -5417.5973492259  2.64E-02
   365 Broy./Diag. 0.80E-01    1.5     0.00405407     -5417.6029092268 -5.56E-03
   366 Broy./Diag. 0.80E-01    1.5     0.00247122     -5417.6026987493  2.10E-04
   367 Broy./Diag. 0.80E-01    1.5     0.00541858     -5417.5828518644  1.98E-02
   368 Broy./Diag. 0.80E-01    1.5     0.00231884     -5417.5656579659  1.72E-02
   369 Broy./Diag. 0.80E-01    1.5     0.00408375     -5417.5744865503 -8.83E-03
   370 Broy./Diag. 0.80E-01    1.5     0.00467854     -5417.6268505843 -5.24E-02
   371 Broy./Diag. 0.80E-01    1.5     0.00608474     -5417.7071933575 -8.03E-02
   372 Broy./Diag. 0.80E-01    1.5     0.00618112     -5417.7805498930 -7.34E-02
   373 Broy./Diag. 0.80E-01    1.5     0.00346554     -5417.7462879643  3.43E-02
   374 Broy./Diag. 0.80E-01    1.5     0.00289403     -5417.8182581180 -7.20E-02
   375 Broy./Diag. 0.80E-01    1.5     0.01181465     -5417.8795662216 -6.13E-02
   376 Broy./Diag. 0.80E-01    1.5     0.00194749     -5417.9218875825 -4.23E-02
   377 Broy./Diag. 0.80E-01    1.5     0.00586589     -5417.9147773667  7.11E-03
