 DBCSR| CPU Multiplication driver                                           XSMM (U)
 DBCSR| Multrec recursion limit                                              512 (U)
 DBCSR| Multiplication stack size                                           1000 (D)
 DBCSR| Maximum elements for images                                    UNLIMITED (U)
 DBCSR| Multiplicative factor virtual images                                   1 (U)
 DBCSR| Use multiplication densification                                       T (D)
 DBCSR| Multiplication size stacks                                             3 (U)
 DBCSR| Use memory pool for CPU allocation                                     F (U)
 DBCSR| Number of 3D layers                                               SINGLE (U)
 DBCSR| Use MPI memory allocation                                              F (U)
 DBCSR| Use RMA algorithm                                                      F (U)
 DBCSR| Use Communication thread                                               T (U)
 DBCSR| Communication thread load                                             87 (D)
 DBCSR| MPI: My process id                                                     0
 DBCSR| MPI: Number of processes                                             128
 DBCSR| OMP: Current number of threads                                         1
 DBCSR| OMP: Max number of threads                                             1
 DBCSR| Split modifier for TAS multiplication algorithm                  1.0E+00 (U)


  **** **** ******  **  PROGRAM STARTED AT               2023-02-15 13:23:41.649
 ***** ** ***  *** **   PROGRAM STARTED ON                             nid001541
 **    ****   ******    PROGRAM STARTED BY                                cahart
 ***** **    ** ** **   PROGRAM PROCESS ID                                214738
  **** **  *******  **  PROGRAM STARTED IN /mnt/lustre/a2fs-work2/work/e05/e05/c
                                           ahart/postdoc/masters/ni/archer2/slab
                                           /optimise/magnetisation/scf_1e-4_temp
                                           -2000_mos-1000_alpha-0.08_beta-1.5_pe
                                           riodic-xyz/search/0.50_0.7

 CP2K| version string:                 CP2K version 2023.1 (Development Version)
 CP2K| source code revision number:                                  git:964cd58
 CP2K| cp2kflags: omp libint fftw3 libxc elpa parallel scalapack xsmm plumed2 mk
 CP2K|            l
 CP2K| is freely available from                            https://www.cp2k.org/
 CP2K| Program compiled at                          Mon 13 Feb 17:05:14 GMT 2023
 CP2K| Program compiled on                                                  ln01
 CP2K| Program compiled for                                              ARCHER2
 CP2K| Data directory path    /work/e05/e05/cahart/cp2k/cp2k-2023.1/cp2k-2023.1-
 CP2K| Input file name                                                  cp2k.inp

 GLOBAL| Force Environment number                                              1
 GLOBAL| Basis set file name                                        BASIS_MOLOPT
 GLOBAL| Potential file name                                      GTH_POTENTIALS
 GLOBAL| MM Potential file name                                     MM_POTENTIAL
 GLOBAL| Coordinate file name                                      __STD_INPUT__
 GLOBAL| Method name                                                        CP2K
 GLOBAL| Project name                                                    Ni_bulk
 GLOBAL| Run type                                                         ENERGY
 GLOBAL| FFT library                                                       FFTW3
 GLOBAL| Diagonalization library                                            ELPA
 GLOBAL| DGEMM library                                                      BLAS
 GLOBAL| Minimum number of eigenvectors for ELPA usage                        16
 GLOBAL| Orthonormality check for eigenvectors                          DISABLED
 GLOBAL| Matrix multiplication library                                 ScaLAPACK
 GLOBAL| All-to-all communication in single precision                          F
 GLOBAL| FFTs using library dependent lengths                                  F
 GLOBAL| Grid backend                                                       AUTO
 GLOBAL| Global print level                                               MEDIUM
 GLOBAL| MPI I/O enabled                                                       T
 GLOBAL| Total number of message passing processes                           128
 GLOBAL| Number of threads for this process                                    1
 GLOBAL| This output is from process                                           0
 GLOBAL| Stack size for threads created by OpenMP (OMP_STACKSIZE)        default
 GLOBAL| CPU model name                          AMD EPYC 7742 64-Core Processor
 GLOBAL| CPUID                                                              1002

 MEMORY| system memory details [Kb]
 MEMORY|                        rank 0           min           max       average
 MEMORY| MemTotal            263527848     263527848     263527848     263527848
 MEMORY| MemFree             239087688     239087688     239087688     239087688
 MEMORY| Buffers                 25152         25152         25152         25152
 MEMORY| Cached                 653328        653328        653328        653328
 MEMORY| Slab                  1529584       1529584       1529584       1529584
 MEMORY| SReclaimable           107568        107568        107568        107568
 MEMORY| MemLikelyFree       239873736     239873736     239873736     239873736


 *** Fundamental physical constants (SI units) ***

 *** Literature: B. J. Mohr and B. N. Taylor,
 ***             CODATA recommended values of the fundamental physical
 ***             constants: 2006, Web Version 5.1
 ***             http://physics.nist.gov/constants

 Speed of light in vacuum [m/s]                             2.99792458000000E+08
 Magnetic constant or permeability of vacuum [N/A**2]       1.25663706143592E-06
 Electric constant or permittivity of vacuum [F/m]          8.85418781762039E-12
 Planck constant (h) [J*s]                                  6.62606896000000E-34
 Planck constant (h-bar) [J*s]                              1.05457162825177E-34
 Elementary charge [C]                                      1.60217648700000E-19
 Electron mass [kg]                                         9.10938215000000E-31
 Electron g factor [ ]                                     -2.00231930436220E+00
 Proton mass [kg]                                           1.67262163700000E-27
 Fine-structure constant                                    7.29735253760000E-03
 Rydberg constant [1/m]                                     1.09737315685270E+07
 Avogadro constant [1/mol]                                  6.02214179000000E+23
 Boltzmann constant [J/K]                                   1.38065040000000E-23
 Atomic mass unit [kg]                                      1.66053878200000E-27
 Bohr radius [m]                                            5.29177208590000E-11

 *** Conversion factors ***

 [u] -> [a.u.]                                              1.82288848426455E+03
 [Angstrom] -> [Bohr] = [a.u.]                              1.88972613288564E+00
 [a.u.] = [Bohr] -> [Angstrom]                              5.29177208590000E-01
 [a.u.] -> [s]                                              2.41888432650478E-17
 [a.u.] -> [fs]                                             2.41888432650478E-02
 [a.u.] -> [J]                                              4.35974393937059E-18
 [a.u.] -> [N]                                              8.23872205491840E-08
 [a.u.] -> [K]                                              3.15774647902944E+05
 [a.u.] -> [kJ/mol]                                         2.62549961709828E+03
 [a.u.] -> [kcal/mol]                                       6.27509468713739E+02
 [a.u.] -> [Pa]                                             2.94210107994716E+13
 [a.u.] -> [bar]                                            2.94210107994716E+08
 [a.u.] -> [atm]                                            2.90362800883016E+08
 [a.u.] -> [eV]                                             2.72113838565563E+01
 [a.u.] -> [Hz]                                             6.57968392072181E+15
 [a.u.] -> [1/cm] (wave numbers)                            2.19474631370540E+05
 [a.u./Bohr**2] -> [1/cm]                                   5.14048714338585E+03
 

 CELL_TOP| Volume [angstrom^3]:                                       983.249569
 CELL_TOP| Vector a [angstrom     7.012     0.000     0.000   |a| =     7.011596
 CELL_TOP| Vector b [angstrom     0.000     7.012     0.000   |b| =     7.011596
 CELL_TOP| Vector c [angstrom     0.000     0.000    20.000   |c| =    20.000000
 CELL_TOP| Angle (b,c), alpha [degree]:                                90.000000
 CELL_TOP| Angle (a,c), beta  [degree]:                                90.000000
 CELL_TOP| Angle (a,b), gamma [degree]:                                90.000000
 CELL_TOP| Numerically orthorhombic:                                         YES
 CELL_TOP| Periodicity                                                       XYZ

 GENERATE|  Preliminary Number of Bonds generated:                             0
 GENERATE|  Achieved consistency in connectivity generation.

 CELL| Volume [angstrom^3]:                                           983.249569
 CELL| Vector a [angstrom]:       7.012     0.000     0.000   |a| =     7.011596
 CELL| Vector b [angstrom]:       0.000     7.012     0.000   |b| =     7.011596
 CELL| Vector c [angstrom]:       0.000     0.000    20.000   |c| =    20.000000
 CELL| Angle (b,c), alpha [degree]:                                    90.000000
 CELL| Angle (a,c), beta  [degree]:                                    90.000000
 CELL| Angle (a,b), gamma [degree]:                                    90.000000
 CELL| Numerically orthorhombic:                                             YES
 CELL| Periodicity                                                           XYZ

 CELL_REF| Volume [angstrom^3]:                                       983.249569
 CELL_REF| Vector a [angstrom     7.012     0.000     0.000   |a| =     7.011596
 CELL_REF| Vector b [angstrom     0.000     7.012     0.000   |b| =     7.011596
 CELL_REF| Vector c [angstrom     0.000     0.000    20.000   |c| =    20.000000
 CELL_REF| Angle (b,c), alpha [degree]:                                90.000000
 CELL_REF| Angle (a,c), beta  [degree]:                                90.000000
 CELL_REF| Angle (a,b), gamma [degree]:                                90.000000
 CELL_REF| Numerically orthorhombic:                                         YES
 CELL_REF| Periodicity                                                       XYZ

 *** WARNING in cryssym.F:165 :: Symmetry library SPGLIB not available ***


 *******************************************************************************
                                    Kpoints
 *******************************************************************************
 BRILLOUIN| K-point scheme                                        Monkhorst-Pack
 BRILLOUIN| K-Point grid                                             4    4    1
 BRILLOUIN| Accuracy in Symmetry determination                      0.100000E-05
 BRILLOUIN| K-Point point group symmetrization                               OFF
 BRILLOUIN| Wavefunction type                                            COMPLEX
 BRILLOUIN| List of Kpoints [2 Pi/Bohr]                                        8
 BRILLOUIN| Number           Weight            X              Y              Z
 BRILLOUIN|     1           0.12500       -0.37500       -0.37500        0.00000
 BRILLOUIN|     2           0.12500       -0.37500       -0.12500        0.00000
 BRILLOUIN|     3           0.12500       -0.37500        0.12500        0.00000
 BRILLOUIN|     4           0.12500       -0.37500        0.37500        0.00000
 BRILLOUIN|     5           0.12500       -0.12500       -0.37500        0.00000
 BRILLOUIN|     6           0.12500       -0.12500       -0.12500        0.00000
 BRILLOUIN|     7           0.12500       -0.12500        0.12500        0.00000
 BRILLOUIN|     8           0.12500       -0.12500        0.37500        0.00000
 *******************************************************************************

 *******************************************************************************
 *******************************************************************************
 **                                                                           **
 **     #####                         ##              ##                      **
 **    ##   ##            ##          ##              ##                      **
 **   ##     ##                       ##            ######                    **
 **   ##     ##  ##   ##  ##   #####  ##  ##   ####   ##    #####    #####    **
 **   ##     ##  ##   ##  ##  ##      ## ##   ##      ##   ##   ##  ##   ##   **
 **   ##  ## ##  ##   ##  ##  ##      ####     ###    ##   ######   ######    **
 **    ##  ###   ##   ##  ##  ##      ## ##      ##   ##   ##       ##        **
 **     #######   #####   ##   #####  ##  ##  ####    ##    #####   ##        **
 **           ##                                                    ##        **
 **                                                                           **
 **                                                ... make the atoms dance   **
 **                                                                           **
 **            Copyright (C) by CP2K developers group (2000-2023)             **
 **                      J. Chem. Phys. 152, 194103 (2020)                    **
 **                                                                           **
 *******************************************************************************

 *** WARNING in qs_environment.F:1456 :: Number of electrons will be ***
 *** overwritten by NELEC_ALPHA and NELEC_BETA, multiplicity will be ***
 *** ignored.                                                        ***

 Number of electrons should be                                               576
 Sum of NELEC_ALPHA and NELEC_BETA is                                    576.000

 *** WARNING in qs_environment.F:1488 :: NELEC_ALPHA is not an integer, ***
 *** many features will not be supported.                               ***


 *** WARNING in qs_environment.F:1500 :: NELEC_BETA is not an integer, ***
 *** many features will not be supported.                              ***


 *** WARNING in qs_environment.F:1532 :: More ADDED_MOs requested for beta ***
 *** spin than available.                                                  ***


 *** WARNING in qs_environment.F:1548 :: More added MOs requested than     ***
 *** available. The full set of unoccupied MOs will be used. Use           ***
 *** 'ADDED_MOS -1' to always use all available MOs and to get rid of this ***
 *** warning.                                                              ***


 DFT| Spin unrestricted (spin-polarized) Kohn-Sham calculation               UKS
 DFT| Multiplicity                                                             1
 DFT| Number of spin states                                                    2
 DFT| Charge                                                                   0
 DFT| Self-interaction correction (SIC)                                       NO
 DFT| Cutoffs: density                                              1.000000E-10
 DFT|          gradient                                             1.000000E-10
 DFT|          tau                                                  1.000000E-10
 DFT|          cutoff_smoothing_range                               0.000000E+00
 DFT| XC density smoothing                                                  NONE
 DFT| XC derivatives                                                          PW

 FUNCTIONAL| PBE:
 FUNCTIONAL| J.P.Perdew, K.Burke, M.Ernzerhof, Phys. Rev. Letter, vol. 77, n 18,
 FUNCTIONAL|  pp. 3865-3868, (1996){spin polarized}                             

 vdW POTENTIAL|                                                   Pair Potential
 vdW POTENTIAL|          DFT-D3 (Version 3.1)
 vdW POTENTIAL|          Potential Form: S. Grimme et al, JCP 132: 154104 (2010)
 vdW POTENTIAL|          Zero Damping
 vdW POTENTIAL|          Cutoff Radius [Bohr]:                             20.00
 vdW POTENTIAL|          s6 Scaling Factor:                               1.0000
 vdW POTENTIAL|          sr6 Scaling Factor:                              1.2170
 vdW POTENTIAL|          s8 Scaling Factor:                               0.7220
 vdW POTENTIAL|          Cutoff for CN calculation:                   0.1000E-05

 QS| Method:                                                                 GPW
 QS| Density plane wave grid type                        NON-SPHERICAL FULLSPACE
 QS| Number of grid levels:                                                    5
 QS| Density cutoff [a.u.]:                                                300.0
 QS| Multi grid cutoff [a.u.]: 1) grid level                               300.0
 QS|                           2) grid level                               100.0
 QS|                           3) grid level                                33.3
 QS|                           4) grid level                                11.1
 QS|                           5) grid level                                 3.7
 QS| Grid level progression factor:                                          3.0
 QS| Relative density cutoff [a.u.]:                                        30.0
 QS| Interaction thresholds: eps_pgf_orb:                                1.0E-06
 QS|                         eps_filter_matrix:                          0.0E+00
 QS|                         eps_core_charge:                            1.0E-14
 QS|                         eps_rho_gspace:                             1.0E-12
 QS|                         eps_rho_rspace:                             1.0E-12
 QS|                         eps_gvg_rspace:                             1.0E-06
 QS|                         eps_ppl:                                    1.0E-02
 QS|                         eps_ppnl:                                   1.0E-08


 ATOMIC KIND INFORMATION

  1. Atomic kind: Ni_i                                  Number of atoms:      16

     Orbital Basis Set                                        DZVP-MOLOPT-SR-GTH

       Number of orbital shell sets:                                           1
       Number of orbital shells:                                               8
       Number of primitive Cartesian functions:                                6
       Number of Cartesian basis functions:                                   31
       Number of spherical basis functions:                                   26
       Norm type:                                                              2

       Normalised Cartesian orbitals:

                        Set   Shell   Orbital            Exponent    Coefficient

                          1       1    2s               10.077428      -0.684558
                                                         5.847736      -0.844524
                                                         2.494033       1.088856
                                                         0.988355       0.395503
                                                         0.344978       0.010224
                                                         0.099466      -0.003250

                          1       2    3s               10.077428       0.096747
                                                         5.847736       0.162504
                                                         2.494033      -0.297192
                                                         0.988355      -0.319752
                                                         0.344978       0.088318
                                                         0.099466       0.118587

                          1       3    4s               10.077428       0.036437
                                                         5.847736      -0.381480
                                                         2.494033       0.003759
                                                         0.988355      -1.048256
                                                         0.344978       0.855825
                                                         0.099466      -0.176350

                          1       4    3px              10.077428      -3.133913
                                                         5.847736       3.027656
                                                         2.494033       2.353227
                                                         0.988355       0.554184
                                                         0.344978       0.019462
                                                         0.099466      -0.000291
                          1       4    3py              10.077428      -3.133913
                                                         5.847736       3.027656
                                                         2.494033       2.353227
                                                         0.988355       0.554184
                                                         0.344978       0.019462
                                                         0.099466      -0.000291
                          1       4    3pz              10.077428      -3.133913
                                                         5.847736       3.027656
                                                         2.494033       2.353227
                                                         0.988355       0.554184
                                                         0.344978       0.019462
                                                         0.099466      -0.000291

                          1       5    4px              10.077428      -0.112729
                                                         5.847736      -0.114008
                                                         2.494033      -0.347303
                                                         0.988355      -0.110323
                                                         0.344978       0.154096
                                                         0.099466       0.058386
                          1       5    4py              10.077428      -0.112729
                                                         5.847736      -0.114008
                                                         2.494033      -0.347303
                                                         0.988355      -0.110323
                                                         0.344978       0.154096
                                                         0.099466       0.058386
                          1       5    4pz              10.077428      -0.112729
                                                         5.847736      -0.114008
                                                         2.494033      -0.347303
                                                         0.988355      -0.110323
                                                         0.344978       0.154096
                                                         0.099466       0.058386

                          1       6    4dx2             10.077428       8.232726
                                                         5.847736       9.105758
                                                         2.494033       2.849835
                                                         0.988355       0.554319
                                                         0.344978       0.067245
                                                         0.099466       0.001940
                          1       6    4dxy             10.077428      14.259500
                                                         5.847736      15.771636
                                                         2.494033       4.936060
                                                         0.988355       0.960109
                                                         0.344978       0.116472
                                                         0.099466       0.003360
                          1       6    4dxz             10.077428      14.259500
                                                         5.847736      15.771636
                                                         2.494033       4.936060
                                                         0.988355       0.960109
                                                         0.344978       0.116472
                                                         0.099466       0.003360
                          1       6    4dy2             10.077428       8.232726
                                                         5.847736       9.105758
                                                         2.494033       2.849835
                                                         0.988355       0.554319
                                                         0.344978       0.067245
                                                         0.099466       0.001940
                          1       6    4dyz             10.077428      14.259500
                                                         5.847736      15.771636
                                                         2.494033       4.936060
                                                         0.988355       0.960109
                                                         0.344978       0.116472
                                                         0.099466       0.003360
                          1       6    4dz2             10.077428       8.232726
                                                         5.847736       9.105758
                                                         2.494033       2.849835
                                                         0.988355       0.554319
                                                         0.344978       0.067245
                                                         0.099466       0.001940

                          1       7    5dx2             10.077428      -2.715373
                                                         5.847736      -4.020640
                                                         2.494033      -1.397569
                                                         0.988355      -0.076143
                                                         0.344978       0.033435
                                                         0.099466       0.026032
                          1       7    5dxy             10.077428      -4.703164
                                                         5.847736      -6.963952
                                                         2.494033      -2.420661
                                                         0.988355      -0.131883
                                                         0.344978       0.057911
                                                         0.099466       0.045088
                          1       7    5dxz             10.077428      -4.703164
                                                         5.847736      -6.963952
                                                         2.494033      -2.420661
                                                         0.988355      -0.131883
                                                         0.344978       0.057911
                                                         0.099466       0.045088
                          1       7    5dy2             10.077428      -2.715373
                                                         5.847736      -4.020640
                                                         2.494033      -1.397569
                                                         0.988355      -0.076143
                                                         0.344978       0.033435
                                                         0.099466       0.026032
                          1       7    5dyz             10.077428      -4.703164
                                                         5.847736      -6.963952
                                                         2.494033      -2.420661
                                                         0.988355      -0.131883
                                                         0.344978       0.057911
                                                         0.099466       0.045088
                          1       7    5dz2             10.077428      -2.715373
                                                         5.847736      -4.020640
                                                         2.494033      -1.397569
                                                         0.988355      -0.076143
                                                         0.344978       0.033435
                                                         0.099466       0.026032

                          1       8    5fx3             10.077428      -0.467694
                                                         5.847736       0.618100
                                                         2.494033       0.066069
                                                         0.988355       0.262898
                                                         0.344978       0.004720
                                                         0.099466       0.007748
                          1       8    5fx2y            10.077428      -1.045795
                                                         5.847736       1.382114
                                                         2.494033       0.147734
                                                         0.988355       0.587859
                                                         0.344978       0.010555
                                                         0.099466       0.017325
                          1       8    5fx2z            10.077428      -1.045795
                                                         5.847736       1.382114
                                                         2.494033       0.147734
                                                         0.988355       0.587859
                                                         0.344978       0.010555
                                                         0.099466       0.017325
                          1       8    5fxy2            10.077428      -1.045795
                                                         5.847736       1.382114
                                                         2.494033       0.147734
                                                         0.988355       0.587859
                                                         0.344978       0.010555
                                                         0.099466       0.017325
                          1       8    5fxyz            10.077428      -1.811371
                                                         5.847736       2.393892
                                                         2.494033       0.255883
                                                         0.988355       1.018201
                                                         0.344978       0.018282
                                                         0.099466       0.030008
                          1       8    5fxz2            10.077428      -1.045795
                                                         5.847736       1.382114
                                                         2.494033       0.147734
                                                         0.988355       0.587859
                                                         0.344978       0.010555
                                                         0.099466       0.017325
                          1       8    5fy3             10.077428      -0.467694
                                                         5.847736       0.618100
                                                         2.494033       0.066069
                                                         0.988355       0.262898
                                                         0.344978       0.004720
                                                         0.099466       0.007748
                          1       8    5fy2z            10.077428      -1.045795
                                                         5.847736       1.382114
                                                         2.494033       0.147734
                                                         0.988355       0.587859
                                                         0.344978       0.010555
                                                         0.099466       0.017325
                          1       8    5fyz2            10.077428      -1.045795
                                                         5.847736       1.382114
                                                         2.494033       0.147734
                                                         0.988355       0.587859
                                                         0.344978       0.010555
                                                         0.099466       0.017325
                          1       8    5fz3             10.077428      -0.467694
                                                         5.847736       0.618100
                                                         2.494033       0.066069
                                                         0.988355       0.262898
                                                         0.344978       0.004720
                                                         0.099466       0.007748

       Atomic covalent radius [Angstrom]:                                  1.150

       Atomic van der Waals radius [Angstrom]:                             1.630

     GTH Potential information for                                   GTH-PBE-q18

       Description:                       Goedecker-Teter-Hutter pseudopotential
                                           Goedecker et al., PRB 54, 1703 (1996)
                                          Hartwigsen et al., PRB 58, 3641 (1998)
                                                      Krack, TCA 114, 145 (2005)

       Gaussian exponent of the core charge distribution:               4.081633
       Electronic configuration (s p d ...):                           4   6   8

       Parameters of the local part of the GTH pseudopotential:

                          rloc        C1          C2          C3          C4
                        0.350000    2.102166    0.648484

       Parameters of the non-local part of the GTH pseudopotential:

                   l      r(l)      h(i,j,l)

                   0    0.261295    0.622658    9.970227
                                    9.970227  -12.871507
                   1    0.224253  -11.142708   12.429566
                                   12.429566  -14.706861
                   2    0.215348  -12.628146

  2. Atomic kind: Ni_b                                  Number of atoms:      16

     Orbital Basis Set                                        DZVP-MOLOPT-SR-GTH

       Number of orbital shell sets:                                           1
       Number of orbital shells:                                               8
       Number of primitive Cartesian functions:                                6
       Number of Cartesian basis functions:                                   31
       Number of spherical basis functions:                                   26
       Norm type:                                                              2

       Normalised Cartesian orbitals:

                        Set   Shell   Orbital            Exponent    Coefficient

                          1       1    2s               10.077428      -0.684558
                                                         5.847736      -0.844524
                                                         2.494033       1.088856
                                                         0.988355       0.395503
                                                         0.344978       0.010224
                                                         0.099466      -0.003250

                          1       2    3s               10.077428       0.096747
                                                         5.847736       0.162504
                                                         2.494033      -0.297192
                                                         0.988355      -0.319752
                                                         0.344978       0.088318
                                                         0.099466       0.118587

                          1       3    4s               10.077428       0.036437
                                                         5.847736      -0.381480
                                                         2.494033       0.003759
                                                         0.988355      -1.048256
                                                         0.344978       0.855825
                                                         0.099466      -0.176350

                          1       4    3px              10.077428      -3.133913
                                                         5.847736       3.027656
                                                         2.494033       2.353227
                                                         0.988355       0.554184
                                                         0.344978       0.019462
                                                         0.099466      -0.000291
                          1       4    3py              10.077428      -3.133913
                                                         5.847736       3.027656
                                                         2.494033       2.353227
                                                         0.988355       0.554184
                                                         0.344978       0.019462
                                                         0.099466      -0.000291
                          1       4    3pz              10.077428      -3.133913
                                                         5.847736       3.027656
                                                         2.494033       2.353227
                                                         0.988355       0.554184
                                                         0.344978       0.019462
                                                         0.099466      -0.000291

                          1       5    4px              10.077428      -0.112729
                                                         5.847736      -0.114008
                                                         2.494033      -0.347303
                                                         0.988355      -0.110323
                                                         0.344978       0.154096
                                                         0.099466       0.058386
                          1       5    4py              10.077428      -0.112729
                                                         5.847736      -0.114008
                                                         2.494033      -0.347303
                                                         0.988355      -0.110323
                                                         0.344978       0.154096
                                                         0.099466       0.058386
                          1       5    4pz              10.077428      -0.112729
                                                         5.847736      -0.114008
                                                         2.494033      -0.347303
                                                         0.988355      -0.110323
                                                         0.344978       0.154096
                                                         0.099466       0.058386

                          1       6    4dx2             10.077428       8.232726
                                                         5.847736       9.105758
                                                         2.494033       2.849835
                                                         0.988355       0.554319
                                                         0.344978       0.067245
                                                         0.099466       0.001940
                          1       6    4dxy             10.077428      14.259500
                                                         5.847736      15.771636
                                                         2.494033       4.936060
                                                         0.988355       0.960109
                                                         0.344978       0.116472
                                                         0.099466       0.003360
                          1       6    4dxz             10.077428      14.259500
                                                         5.847736      15.771636
                                                         2.494033       4.936060
                                                         0.988355       0.960109
                                                         0.344978       0.116472
                                                         0.099466       0.003360
                          1       6    4dy2             10.077428       8.232726
                                                         5.847736       9.105758
                                                         2.494033       2.849835
                                                         0.988355       0.554319
                                                         0.344978       0.067245
                                                         0.099466       0.001940
                          1       6    4dyz             10.077428      14.259500
                                                         5.847736      15.771636
                                                         2.494033       4.936060
                                                         0.988355       0.960109
                                                         0.344978       0.116472
                                                         0.099466       0.003360
                          1       6    4dz2             10.077428       8.232726
                                                         5.847736       9.105758
                                                         2.494033       2.849835
                                                         0.988355       0.554319
                                                         0.344978       0.067245
                                                         0.099466       0.001940

                          1       7    5dx2             10.077428      -2.715373
                                                         5.847736      -4.020640
                                                         2.494033      -1.397569
                                                         0.988355      -0.076143
                                                         0.344978       0.033435
                                                         0.099466       0.026032
                          1       7    5dxy             10.077428      -4.703164
                                                         5.847736      -6.963952
                                                         2.494033      -2.420661
                                                         0.988355      -0.131883
                                                         0.344978       0.057911
                                                         0.099466       0.045088
                          1       7    5dxz             10.077428      -4.703164
                                                         5.847736      -6.963952
                                                         2.494033      -2.420661
                                                         0.988355      -0.131883
                                                         0.344978       0.057911
                                                         0.099466       0.045088
                          1       7    5dy2             10.077428      -2.715373
                                                         5.847736      -4.020640
                                                         2.494033      -1.397569
                                                         0.988355      -0.076143
                                                         0.344978       0.033435
                                                         0.099466       0.026032
                          1       7    5dyz             10.077428      -4.703164
                                                         5.847736      -6.963952
                                                         2.494033      -2.420661
                                                         0.988355      -0.131883
                                                         0.344978       0.057911
                                                         0.099466       0.045088
                          1       7    5dz2             10.077428      -2.715373
                                                         5.847736      -4.020640
                                                         2.494033      -1.397569
                                                         0.988355      -0.076143
                                                         0.344978       0.033435
                                                         0.099466       0.026032

                          1       8    5fx3             10.077428      -0.467694
                                                         5.847736       0.618100
                                                         2.494033       0.066069
                                                         0.988355       0.262898
                                                         0.344978       0.004720
                                                         0.099466       0.007748
                          1       8    5fx2y            10.077428      -1.045795
                                                         5.847736       1.382114
                                                         2.494033       0.147734
                                                         0.988355       0.587859
                                                         0.344978       0.010555
                                                         0.099466       0.017325
                          1       8    5fx2z            10.077428      -1.045795
                                                         5.847736       1.382114
                                                         2.494033       0.147734
                                                         0.988355       0.587859
                                                         0.344978       0.010555
                                                         0.099466       0.017325
                          1       8    5fxy2            10.077428      -1.045795
                                                         5.847736       1.382114
                                                         2.494033       0.147734
                                                         0.988355       0.587859
                                                         0.344978       0.010555
                                                         0.099466       0.017325
                          1       8    5fxyz            10.077428      -1.811371
                                                         5.847736       2.393892
                                                         2.494033       0.255883
                                                         0.988355       1.018201
                                                         0.344978       0.018282
                                                         0.099466       0.030008
                          1       8    5fxz2            10.077428      -1.045795
                                                         5.847736       1.382114
                                                         2.494033       0.147734
                                                         0.988355       0.587859
                                                         0.344978       0.010555
                                                         0.099466       0.017325
                          1       8    5fy3             10.077428      -0.467694
                                                         5.847736       0.618100
                                                         2.494033       0.066069
                                                         0.988355       0.262898
                                                         0.344978       0.004720
                                                         0.099466       0.007748
                          1       8    5fy2z            10.077428      -1.045795
                                                         5.847736       1.382114
                                                         2.494033       0.147734
                                                         0.988355       0.587859
                                                         0.344978       0.010555
                                                         0.099466       0.017325
                          1       8    5fyz2            10.077428      -1.045795
                                                         5.847736       1.382114
                                                         2.494033       0.147734
                                                         0.988355       0.587859
                                                         0.344978       0.010555
                                                         0.099466       0.017325
                          1       8    5fz3             10.077428      -0.467694
                                                         5.847736       0.618100
                                                         2.494033       0.066069
                                                         0.988355       0.262898
                                                         0.344978       0.004720
                                                         0.099466       0.007748

       Atomic covalent radius [Angstrom]:                                  1.150

       Atomic van der Waals radius [Angstrom]:                             1.630

     GTH Potential information for                                   GTH-PBE-q18

       Description:                       Goedecker-Teter-Hutter pseudopotential
                                           Goedecker et al., PRB 54, 1703 (1996)
                                          Hartwigsen et al., PRB 58, 3641 (1998)
                                                      Krack, TCA 114, 145 (2005)

       Gaussian exponent of the core charge distribution:               4.081633
       Electronic configuration (s p d ...):                           4   6   8

       Parameters of the local part of the GTH pseudopotential:

                          rloc        C1          C2          C3          C4
                        0.350000    2.102166    0.648484

       Parameters of the non-local part of the GTH pseudopotential:

                   l      r(l)      h(i,j,l)

                   0    0.261295    0.622658    9.970227
                                    9.970227  -12.871507
                   1    0.224253  -11.142708   12.429566
                                   12.429566  -14.706861
                   2    0.215348  -12.628146


 MOLECULE KIND INFORMATION


 All atoms are their own molecule, skipping detailed information


 TOTAL NUMBERS AND MAXIMUM NUMBERS

  Total number of            - Atomic kinds:                                   2
                             - Atoms:                                         32
                             - Shell sets:                                    32
                             - Shells:                                       256
                             - Primitive Cartesian functions:                192
                             - Cartesian basis functions:                    992
                             - Spherical basis functions:                    832

  Maximum angular momentum of- Orbital basis functions:                        3
                             - Local part of the GTH pseudopotential:          2
                             - Non-local part of the GTH pseudopotential:      3


 MODULE QUICKSTEP: ATOMIC COORDINATES IN ANGSTROM

   Atom Kind Element         X             Y             Z       Z(eff)     Mass
      1    1 Ni   28      0.876298      0.876298      7.370500  18.0000  58.6934
      2    1 Ni   28      0.876298      4.382298      7.370500  18.0000  58.6934
      3    1 Ni   28      2.629298      2.629298      7.370500  18.0000  58.6934
      4    1 Ni   28      2.629298      6.135298      7.370500  18.0000  58.6934
      5    1 Ni   28      4.382298      0.876298      7.370500  18.0000  58.6934
      6    1 Ni   28      4.382298      4.382298      7.370500  18.0000  58.6934
      7    1 Ni   28      6.135298      2.629298      7.370500  18.0000  58.6934
      8    1 Ni   28      6.135298      6.135298      7.370500  18.0000  58.6934
      9    2 Ni   28      0.876298      2.629298      9.123500  18.0000  58.6934
     10    2 Ni   28      0.876298      6.135298      9.123500  18.0000  58.6934
     11    2 Ni   28      2.629298      0.876298      9.123500  18.0000  58.6934
     12    2 Ni   28      2.629298      4.382298      9.123500  18.0000  58.6934
     13    2 Ni   28      4.382298      2.629298      9.123500  18.0000  58.6934
     14    2 Ni   28      4.382298      6.135298      9.123500  18.0000  58.6934
     15    2 Ni   28      6.135298      0.876298      9.123500  18.0000  58.6934
     16    2 Ni   28      6.135298      4.382298      9.123500  18.0000  58.6934
     17    2 Ni   28      0.876298      0.876298     10.876500  18.0000  58.6934
     18    2 Ni   28      0.876298      4.382298     10.876500  18.0000  58.6934
     19    2 Ni   28      2.629298      2.629298     10.876500  18.0000  58.6934
     20    2 Ni   28      2.629298      6.135298     10.876500  18.0000  58.6934
     21    2 Ni   28      4.382298      0.876298     10.876500  18.0000  58.6934
     22    2 Ni   28      4.382298      4.382298     10.876500  18.0000  58.6934
     23    2 Ni   28      6.135298      2.629298     10.876500  18.0000  58.6934
     24    2 Ni   28      6.135298      6.135298     10.876500  18.0000  58.6934
     25    1 Ni   28      0.876298      2.629298     12.629500  18.0000  58.6934
     26    1 Ni   28      0.876298      6.135298     12.629500  18.0000  58.6934
     27    1 Ni   28      2.629298      0.876298     12.629500  18.0000  58.6934
     28    1 Ni   28      2.629298      4.382298     12.629500  18.0000  58.6934
     29    1 Ni   28      4.382298      2.629298     12.629500  18.0000  58.6934
     30    1 Ni   28      4.382298      6.135298     12.629500  18.0000  58.6934
     31    1 Ni   28      6.135298      0.876298     12.629500  18.0000  58.6934
     32    1 Ni   28      6.135298      4.382298     12.629500  18.0000  58.6934



 SCF PARAMETERS         Density guess:                                    ATOMIC
                        --------------------------------------------------------
                        max_scf:                                             500
                        max_scf_history:                                       0
                        max_diis:                                              4
                        --------------------------------------------------------
                        eps_scf:                                        1.00E-04
                        eps_scf_history:                                0.00E+00
                        eps_diis:                                       1.00E-01
                        eps_eigval:                                     1.00E-05
                        --------------------------------------------------------
                        level_shift [a.u.]:                             0.000000
                        added MOs                                       534  553
                        --------------------------------------------------------
                        Mixing method:                            BROYDEN_MIXING
                                                charge density mixing in g-space
                        --------------------------------------------------------
                        Smear method:                                FERMI_DIRAC
                        Electronic temperature [K]:                       2000.0
                        Electronic temperature [a.u.]:                  6.33E-03
                        Accuracy threshold:                             1.00E-10
                        --------------------------------------------------------
                        No outer SCF

 PW_GRID| Information for grid number                                          1
 PW_GRID| Grid distributed over                                   128 processors
 PW_GRID| Real space group dimensions                                     8   16
 PW_GRID| the grid is blocked:                                               YES
 PW_GRID| Cutoff [a.u.]                                                    300.0
 PW_GRID| spherical cutoff:                                                   NO
 PW_GRID|   Bounds   1            -54      53                Points:         108
 PW_GRID|   Bounds   2            -54      53                Points:         108
 PW_GRID|   Bounds   3           -150     149                Points:         300
 PW_GRID| Volume element (a.u.^3)  0.1896E-02     Volume (a.u.^3)      6635.2971
 PW_GRID| Grid span                                                    FULLSPACE
 PW_GRID|   Distribution                         Average         Max         Min
 PW_GRID|   G-Vectors                            27337.5       28728       25272
 PW_GRID|   G-Rays                                 253.1         266         234
 PW_GRID|   Real Space Points                    27337.5       28728       25272

 PW_GRID| Information for grid number                                          2
 PW_GRID| Number of the reference grid                                         1
 PW_GRID| Grid distributed over                                   128 processors
 PW_GRID| Real space group dimensions                                     8   16
 PW_GRID| the grid is blocked:                                                NO
 PW_GRID| Cutoff [a.u.]                                                    100.0
 PW_GRID| spherical cutoff:                                                   NO
 PW_GRID|   Bounds   1            -30      29                Points:          60
 PW_GRID|   Bounds   2            -30      29                Points:          60
 PW_GRID|   Bounds   3            -90      89                Points:         180
 PW_GRID| Volume element (a.u.^3)  0.1024E-01     Volume (a.u.^3)      6635.2971
 PW_GRID| Grid span                                                    FULLSPACE
 PW_GRID|   Distribution                         Average         Max         Min
 PW_GRID|   G-Vectors                             5062.5       15960           0
 PW_GRID|   G-Rays                                  84.4         266           0
 PW_GRID|   Real Space Points                     5062.5        5760        3780

 PW_GRID| Information for grid number                                          3
 PW_GRID| Number of the reference grid                                         1
 PW_GRID| Grid distributed over                                   128 processors
 PW_GRID| Real space group dimensions                                     8   16
 PW_GRID| the grid is blocked:                                                NO
 PW_GRID| Cutoff [a.u.]                                                     33.3
 PW_GRID| spherical cutoff:                                                   NO
 PW_GRID|   Bounds   1            -18      17                Points:          36
 PW_GRID|   Bounds   2            -18      17                Points:          36
 PW_GRID|   Bounds   3            -50      49                Points:         100
 PW_GRID| Volume element (a.u.^3)  0.5120E-01     Volume (a.u.^3)      6635.2971
 PW_GRID| Grid span                                                    FULLSPACE
 PW_GRID|   Distribution                         Average         Max         Min
 PW_GRID|   G-Vectors                             1012.5        9576           0
 PW_GRID|   G-Rays                                  28.1         266           0
 PW_GRID|   Real Space Points                     1012.5        1500         800

 PW_GRID| Information for grid number                                          4
 PW_GRID| Number of the reference grid                                         1
 PW_GRID| Grid distributed over                                   128 processors
 PW_GRID| Real space group dimensions                                     8   16
 PW_GRID| the grid is blocked:                                                NO
 PW_GRID| Cutoff [a.u.]                                                     11.1
 PW_GRID| spherical cutoff:                                                   NO
 PW_GRID|   Bounds   1            -10       9                Points:          20
 PW_GRID|   Bounds   2            -10       9                Points:          20
 PW_GRID|   Bounds   3            -30      29                Points:          60
 PW_GRID| Volume element (a.u.^3)  0.2765         Volume (a.u.^3)      6635.2971
 PW_GRID| Grid span                                                    FULLSPACE
 PW_GRID|   Distribution                         Average         Max         Min
 PW_GRID|   G-Vectors                              187.5        3800           0
 PW_GRID|   G-Rays                                   9.4         190           0
 PW_GRID|   Real Space Points                      187.5         360         120

 PW_GRID| Information for grid number                                          5
 PW_GRID| Number of the reference grid                                         1
 PW_GRID| Grid distributed over                                   128 processors
 PW_GRID| Real space group dimensions                                     8   16
 PW_GRID| the grid is blocked:                                                NO
 PW_GRID| Cutoff [a.u.]                                                      3.7
 PW_GRID| spherical cutoff:                                                   NO
 PW_GRID|   Bounds   1             -6       5                Points:          12
 PW_GRID|   Bounds   2             -6       5                Points:          12
 PW_GRID|   Bounds   3            -18      17                Points:          36
 PW_GRID| Volume element (a.u.^3)   1.280         Volume (a.u.^3)      6635.2971
 PW_GRID| Grid span                                                    FULLSPACE
 PW_GRID|   Distribution                         Average         Max         Min
 PW_GRID|   G-Vectors                               40.5        1296           0
 PW_GRID|   G-Rays                                   3.4         108           0
 PW_GRID|   Real Space Points                       40.5          72           0

 POISSON| Solver                                                        PERIODIC
 POISSON| Periodicity                                                        XYZ

 RS_GRID| Information for grid number                                          1
 RS_GRID|   Bounds   1            -54      53                Points:         108
 RS_GRID|   Bounds   2            -54      53                Points:         108
 RS_GRID|   Bounds   3           -150     149                Points:         300
 RS_GRID| Real space distribution over                                  8 groups
 RS_GRID| Real space distribution along direction                              2
 RS_GRID| Border size                                                         28
 RS_GRID| Real space distribution over                                 16 groups
 RS_GRID| Real space distribution along direction                              3
 RS_GRID| Border size                                                         28
 RS_GRID|   Distribution                         Average         Max         Min
 RS_GRID|   Planes                                  69.5          70          69
 RS_GRID|   Distribution                         Average         Max         Min
 RS_GRID|   Planes                                  74.8          75          74

 RS_GRID| Information for grid number                                          2
 RS_GRID|   Bounds   1            -30      29                Points:          60
 RS_GRID|   Bounds   2            -30      29                Points:          60
 RS_GRID|   Bounds   3            -90      89                Points:         180
 RS_GRID| Real space fully replicated
 RS_GRID| Group size                                                           1

 RS_GRID| Information for grid number                                          3
 RS_GRID|   Bounds   1            -18      17                Points:          36
 RS_GRID|   Bounds   2            -18      17                Points:          36
 RS_GRID|   Bounds   3            -50      49                Points:         100
 RS_GRID| Real space fully replicated
 RS_GRID| Group size                                                           1

 RS_GRID| Information for grid number                                          4
 RS_GRID|   Bounds   1            -10       9                Points:          20
 RS_GRID|   Bounds   2            -10       9                Points:          20
 RS_GRID|   Bounds   3            -30      29                Points:          60
 RS_GRID| Real space fully replicated
 RS_GRID| Group size                                                           1

 RS_GRID| Information for grid number                                          5
 RS_GRID|   Bounds   1             -6       5                Points:          12
 RS_GRID|   Bounds   2             -6       5                Points:          12
 RS_GRID|   Bounds   3            -18      17                Points:          36
 RS_GRID| Real space fully replicated
 RS_GRID| Group size                                                           1

 Spin 1

 Number of electrons:                                                        297.600
 Number of occupied orbitals:                                                298
 Number of molecular orbitals:                                               832

 Spin 2

 Number of electrons:                                                        278.400
 Number of occupied orbitals:                                                279
 Number of molecular orbitals:                                               832

 Number of orbital functions:                                                832
 Number of independent orbital functions:                                    832

 Extrapolation method: initial_guess

 Atomic guess: The first density matrix is obtained in terms of atomic orbitals
               and electronic configurations assigned to each atomic kind

 Guess for atomic kind: Ni_i

 Electronic structure
    Total number of core electrons                                         10.00
    Total number of valence electrons                                      18.00
    Total number of electrons                                              28.00
    Multiplicity                                                         doublet
    Alpha Electrons
    S   [  1.00  1.00] 1.00  1.00
    P   [  3.00] 3.00
    D      4.35
    Beta Electrons
    S   [  1.00  1.00] 1.00  1.00
    P   [  3.00] 3.00
    D      3.65


 *******************************************************************************
                  Iteration          Convergence                     Energy [au]
 *******************************************************************************
                          1         1.51729                    -167.067424631347
                          2         15.3902                    -156.642654318634
                          3         2.33433                    -168.319355313541
                          4        0.206730                    -168.609905008081
                          5        0.814175E-01                -168.612873080494
                          6        0.173318E-01                -168.613470181066
                          7        0.290432E-02                -168.613543571401
                          8        0.311825E-02                -168.613543401474
                          9        0.179670E-03                -168.613544404477
                         10        0.169386E-02                -168.613544207811
                         11        0.473341E-03                -168.613544360253
                         12        0.165417E-03                -168.613544400419
                         13        0.162622E-03                -168.613544401489
                         14        0.158325E-03                -168.613544403900
                         15        0.177007E-03                -168.613544402509
                         16        0.138916E-03                -168.613544404900
                         17        0.934549E-04                -168.613544406149
                         18        0.119916E-03                -168.613544405789
                         19        0.131607E-03                -168.613544405591
                         20        0.169309E-03                -168.613544404773
                         21        0.551337E-04                -168.613544406656
                         22        0.382664E-04                -168.613544406759
                         23        0.378942E-04                -168.613544406765
                         24        0.381089E-04                -168.613544406765
                         25        0.390835E-04                -168.613544406759
                         26        0.308614E-04                -168.613544406841
                         27        0.205044E-04                -168.613544406892
                         28        0.200942E-04                -168.613544406893
                         29        0.199375E-04                -168.613544406893
                         30        0.200198E-04                -168.613544406894
                         31        0.161325E-04                -168.613544406903
                         32        0.330614E-05                -168.613544406925
                         33        0.238713E-05                -168.613544406926
                         34        0.265439E-05                -168.613544406926
                         35        0.277073E-05                -168.613544406926
                         36        0.335175E-05                -168.613544406926
                         37        0.148809E-05                -168.613544406927
                         38        0.133447E-05                -168.613544406927
                         39        0.918735E-06                -168.613544406927

 Energy components [Hartree]           Total Energy ::         -168.613544406927
                                        Band Energy ::          -26.569761966525
                                     Kinetic Energy ::           97.306723392622
                                   Potential Energy ::         -265.920267799548
                                      Virial (-V/T) ::            2.732804666812
                                        Core Energy ::         -299.567979157577
                                          XC Energy ::          -16.227189041387
                                     Coulomb Energy ::          147.181623792037
                       Total Pseudopotential Energy ::         -396.961043505191
                       Local Pseudopotential Energy ::         -362.648291121960
                    Nonlocal Pseudopotential Energy ::          -34.312752383230
                                        Confinement ::            0.863409549921

 Orbital energies  State     Spin  L     Occupation   Energy[a.u.]    Energy[eV]

                       1    alpha  0          1.000      -4.172666   -113.544030
                       2    alpha  0          1.000      -0.181431     -4.936983
                       1     beta  0          1.000      -4.140640   -112.672541
                       2     beta  0          1.000      -0.176372     -4.799339

                       1    alpha  1          3.000      -2.578739    -70.171064
                       1     beta  1          3.000      -2.547579    -69.323162

                       1    alpha  2          4.350      -0.327039     -8.899191
                       1     beta  2          3.650      -0.300569     -8.178887


 Total Electron Density at R=0:                                         0.030422

 Guess for atomic kind: Ni_b

 Electronic structure
    Total number of core electrons                                         10.00
    Total number of valence electrons                                      18.00
    Total number of electrons                                              28.00
    Multiplicity                                                         doublet
    Alpha Electrons
    S   [  1.00  1.00] 1.00  1.00
    P   [  3.00] 3.00
    D      4.25
    Beta Electrons
    S   [  1.00  1.00] 1.00  1.00
    P   [  3.00] 3.00
    D      3.75


 *******************************************************************************
                  Iteration          Convergence                     Energy [au]
 *******************************************************************************
                          1         1.51687                    -167.065012761055
                          2         14.9817                    -156.620431300845
                          3         2.25575                    -168.317311438693
                          4        0.189210                    -168.607926092750
                          5        0.708658E-01                -168.610773319290
                          6        0.122256E-01                -168.611238205502
                          7        0.598421E-02                -168.611272268995
                          8        0.528277E-02                -168.611272438110
                          9        0.104644E-02                -168.611275321653
                         10        0.260234E-02                -168.611274926630
                         11        0.975322E-03                -168.611275328217
                         12        0.161067E-03                -168.611275447773
                         13        0.147413E-03                -168.611275446839
                         14        0.115114E-03                -168.611275449434
                         15        0.167217E-03                -168.611275445436
                         16        0.255374E-04                -168.611275450531
                         17        0.418369E-04                -168.611275450414
                         18        0.393709E-04                -168.611275450477
                         19        0.239931E-04                -168.611275450542
                         20        0.173885E-04                -168.611275450557
                         21        0.851368E-05                -168.611275450578
                         22        0.849928E-05                -168.611275450580
                         23        0.544937E-05                -168.611275450584
                         24        0.540003E-05                -168.611275450586
                         25        0.613371E-05                -168.611275450584
                         26        0.311593E-06                -168.611275450588

 Energy components [Hartree]           Total Energy ::         -168.611275450588
                                        Band Energy ::          -26.568680144499
                                     Kinetic Energy ::           97.303659243130
                                   Potential Energy ::         -265.914934693718
                                      Virial (-V/T) ::            2.732835915546
                                        Core Energy ::         -299.566189183323
                                          XC Energy ::          -16.224592878785
                                     Coulomb Energy ::          147.179506611520
                       Total Pseudopotential Energy ::         -396.956189041778
                       Local Pseudopotential Energy ::         -362.645043136649
                    Nonlocal Pseudopotential Energy ::          -34.311145905129
                                        Confinement ::            0.863406153250

 Orbital energies  State     Spin  L     Occupation   Energy[a.u.]    Energy[eV]

                       1    alpha  0          1.000      -4.168335   -113.426177
                       2    alpha  0          1.000      -0.180730     -4.917906
                       1     beta  0          1.000      -4.145459   -112.803683
                       2     beta  0          1.000      -0.177117     -4.819606

                       1    alpha  1          3.000      -2.574525    -70.056390
                       1     beta  1          3.000      -2.552268    -69.450746

                       1    alpha  2          4.250      -0.323446     -8.801405
                       1     beta  2          3.750      -0.304537     -8.286881


 Total Electron Density at R=0:                                         0.030429

 Spin 1
 Re-scaling the density matrix to get the right number of electrons for spin 1
                  # Electrons              Trace(P)               Scaling factor
                        297.600             297.600                        1.000

 Spin 2
 Re-scaling the density matrix to get the right number of electrons for spin 2
                  # Electrons              Trace(P)               Scaling factor
                        278.400             278.400                        1.000


 SCF WAVEFUNCTION OPTIMIZATION

  Step     Update method      Time    Convergence         Total energy    Change
  ------------------------------------------------------------------------------
     1 NoMix/Diag. 0.80E-01    1.5     0.87318318     -5426.4441344177 -5.43E+03
     2 Broy./Diag. 0.80E-01    1.5     0.01454654     -5316.3072466670  1.10E+02
[...]
   118 Broy./Diag. 0.80E-01    1.5     0.00253228     -5417.4537519474  2.53E-02
   119 Broy./Diag. 0.80E-01    1.5     0.00249774     -5417.4508266008  2.93E-03
   120 Broy./Diag. 0.80E-01    1.5     0.00542709     -5417.5053782053 -5.46E-02
   121 Broy./Diag. 0.80E-01    1.5     0.00313903     -5417.6548268331 -1.49E-01
   122 Broy./Diag. 0.80E-01    1.5     0.00080998     -5417.7223131939 -6.75E-02
   123 Broy./Diag. 0.80E-01    1.5     0.00110875     -5417.7684047962 -4.61E-02
   124 Broy./Diag. 0.80E-01    1.5     0.00279033     -5417.8052316129 -3.68E-02
   125 Broy./Diag. 0.80E-01    1.5     0.00200071     -5417.7816460037  2.36E-02
   126 Broy./Diag. 0.80E-01    1.5     0.00568340     -5417.8426021329 -6.10E-02
   127 Broy./Diag. 0.80E-01    1.5     0.00284943     -5417.9445637250 -1.02E-01
   128 Broy./Diag. 0.80E-01    1.5     0.00097233     -5417.8975528411  4.70E-02
   129 Broy./Diag. 0.80E-01    1.5     0.00074567     -5417.9114148185 -1.39E-02
   130 Broy./Diag. 0.80E-01    1.5     0.00932852     -5417.9421377807 -3.07E-02
   131 Broy./Diag. 0.80E-01    1.5     0.00750349     -5418.0181364795 -7.60E-02
   132 Broy./Diag. 0.80E-01    1.5     0.00209714     -5417.8514807531  1.67E-01
   133 Broy./Diag. 0.80E-01    1.5     0.01018862     -5417.8333108960  1.82E-02
   134 Broy./Diag. 0.80E-01    1.5     0.02381399     -5417.7197250805  1.14E-01
   135 Broy./Diag. 0.80E-01    1.5     0.03059042     -5417.6601737787  5.96E-02
   136 Broy./Diag. 0.80E-01    1.5     0.03389306     -5417.7131317803 -5.30E-02
   137 Broy./Diag. 0.80E-01    1.5     0.01914908     -5417.6498440511  6.33E-02
   138 Broy./Diag. 0.80E-01    1.5     0.00355594     -5417.7137770594 -6.39E-02
   139 Broy./Diag. 0.80E-01    1.5     0.00309924     -5417.5787742844  1.35E-01
   140 Broy./Diag. 0.80E-01    1.5     0.00347492     -5417.6567442472 -7.80E-02
   141 Broy./Diag. 0.80E-01    1.5     0.00676516     -5417.6768730408 -2.01E-02
   142 Broy./Diag. 0.80E-01    1.5     0.00246654     -5417.8376324087 -1.61E-01
   143 Broy./Diag. 0.80E-01    1.5     0.00601537     -5417.8049805833  3.27E-02
   144 Broy./Diag. 0.80E-01    1.5     0.00497832     -5417.8559313040 -5.10E-02
   145 Broy./Diag. 0.80E-01    1.5     0.01070501     -5417.9697172749 -1.14E-01
   146 Broy./Diag. 0.80E-01    1.5     0.01209357     -5417.8361812824  1.34E-01
   147 Broy./Diag. 0.80E-01    1.5     0.01069290     -5418.2759291710 -4.40E-01
   148 Broy./Diag. 0.80E-01    1.5     0.00862912     -5418.0257739089  2.50E-01
   149 Broy./Diag. 0.80E-01    1.5     0.00543612     -5418.0763283222 -5.06E-02
   150 Broy./Diag. 0.80E-01    1.5     0.00931113     -5418.1992298039 -1.23E-01
   151 Broy./Diag. 0.80E-01    1.5     0.01237823     -5417.8076984585  3.92E-01
   152 Broy./Diag. 0.80E-01    1.5     0.00190938     -5417.5686138630  2.39E-01
   153 Broy./Diag. 0.80E-01    1.5     0.00362527     -5417.3129021149  2.56E-01
   154 Broy./Diag. 0.80E-01    1.5     0.00582561     -5417.4803651259 -1.67E-01
   155 Broy./Diag. 0.80E-01    1.5     0.00407786     -5417.6230367595 -1.43E-01
   156 Broy./Diag. 0.80E-01    1.5     0.04020767     -5417.4821882002  1.41E-01
   157 Broy./Diag. 0.80E-01    1.5     0.02192077     -5418.5233895343 -1.04E+00
   158 Broy./Diag. 0.80E-01    1.5     0.00461142     -5418.3107926765  2.13E-01
   159 Broy./Diag. 0.80E-01    1.5     0.00286863     -5418.3384591804 -2.77E-02
   160 Broy./Diag. 0.80E-01    1.5     0.01096236     -5418.1041900050  2.34E-01
   161 Broy./Diag. 0.80E-01    1.5     0.00606577     -5418.4136756281 -3.09E-01
   162 Broy./Diag. 0.80E-01    1.5     0.00501222     -5418.1299586571  2.84E-01
   163 Broy./Diag. 0.80E-01    1.5     0.00585809     -5417.8777818882  2.52E-01
   164 Broy./Diag. 0.80E-01    1.5     0.01952064     -5418.0818830960 -2.04E-01
   165 Broy./Diag. 0.80E-01    1.5     0.00669367     -5418.4863482955 -4.04E-01
   166 Broy./Diag. 0.80E-01    1.5     0.00440206     -5418.4404293485  4.59E-02
   167 Broy./Diag. 0.80E-01    1.5     0.00373906     -5418.3202056038  1.20E-01
   168 Broy./Diag. 0.80E-01    1.5     0.01098683     -5418.1546879830  1.66E-01
   169 Broy./Diag. 0.80E-01    1.5     0.04472671     -5418.2468047237 -9.21E-02
   170 Broy./Diag. 0.80E-01    1.5     0.01250771     -5418.1500486748  9.68E-02
   171 Broy./Diag. 0.80E-01    1.5     0.00814877     -5418.1420047506  8.04E-03
   172 Broy./Diag. 0.80E-01    1.5     0.01694954     -5418.2440321609 -1.02E-01
   173 Broy./Diag. 0.80E-01    1.5     0.00369463     -5418.1738445382  7.02E-02
   174 Broy./Diag. 0.80E-01    1.5     0.00830948     -5418.1407145604  3.31E-02
   175 Broy./Diag. 0.80E-01    1.5     0.00609335     -5418.1244478189  1.63E-02
   176 Broy./Diag. 0.80E-01    1.5     0.00619940     -5418.1115124057  1.29E-02
   177 Broy./Diag. 0.80E-01    1.5     0.00903612     -5418.1788209078 -6.73E-02
   178 Broy./Diag. 0.80E-01    1.5     0.01523724     -5418.2468275374 -6.80E-02
   179 Broy./Diag. 0.80E-01    1.5     0.03342352     -5418.3184024948 -7.16E-02
   180 Broy./Diag. 0.80E-01    1.5     0.00152075     -5418.2645525209  5.38E-02
   181 Broy./Diag. 0.80E-01    1.5     0.02053070     -5418.2531218445  1.14E-02
   182 Broy./Diag. 0.80E-01    1.5     0.01525729     -5418.3074133520 -5.43E-02
   183 Broy./Diag. 0.80E-01    1.5     0.05420079     -5418.4900004282 -1.83E-01
   184 Broy./Diag. 0.80E-01    1.5     0.00707514     -5418.3804370963  1.10E-01
   185 Broy./Diag. 0.80E-01    1.5     0.00664548     -5418.0434914245  3.37E-01
   186 Broy./Diag. 0.80E-01    1.5     0.01250426     -5417.8333975662  2.10E-01
   187 Broy./Diag. 0.80E-01    1.5     0.00658094     -5417.7775325124  5.59E-02
   188 Broy./Diag. 0.80E-01    1.5     0.01511925     -5417.8501581449 -7.26E-02
   189 Broy./Diag. 0.80E-01    1.5     0.01666426     -5417.5215891873  3.29E-01
   190 Broy./Diag. 0.80E-01    1.5     0.01255161     -5417.5854095671 -6.38E-02
   191 Broy./Diag. 0.80E-01    1.5     0.02061336     -5417.7212924427 -1.36E-01
   192 Broy./Diag. 0.80E-01    1.5     0.01549449     -5417.9155791626 -1.94E-01
   193 Broy./Diag. 0.80E-01    1.5     0.00487920     -5417.5429892752  3.73E-01
   194 Broy./Diag. 0.80E-01    1.5     0.01095624     -5417.6918834783 -1.49E-01
   195 Broy./Diag. 0.80E-01    1.5     0.00848541     -5417.7744149878 -8.25E-02
   196 Broy./Diag. 0.80E-01    1.5     0.00172389     -5418.0949440198 -3.21E-01
   197 Broy./Diag. 0.80E-01    1.5     0.01149676     -5418.0161843075  7.88E-02
   198 Broy./Diag. 0.80E-01    1.5     0.00485203     -5418.1588227136 -1.43E-01
   199 Broy./Diag. 0.80E-01    1.5     0.02384312     -5418.4726790552 -3.14E-01
   200 Broy./Diag. 0.80E-01    1.5     0.02122934     -5418.7580069136 -2.85E-01
   201 Broy./Diag. 0.80E-01    1.5     0.01305945     -5418.9722042781 -2.14E-01
   202 Broy./Diag. 0.80E-01    1.5     0.01793961     -5418.5676147612  4.05E-01
   203 Broy./Diag. 0.80E-01    1.5     0.00419956     -5418.2013816270  3.66E-01
   204 Broy./Diag. 0.80E-01    1.5     0.00323188     -5418.1670779694  3.43E-02
   205 Broy./Diag. 0.80E-01    1.5     0.01296906     -5418.1772894688 -1.02E-02
   206 Broy./Diag. 0.80E-01    1.5     0.01303865     -5418.2928841009 -1.16E-01
   207 Broy./Diag. 0.80E-01    1.5     0.04239581     -5418.2858265715  7.06E-03
   208 Broy./Diag. 0.80E-01    1.5     0.01701612     -5418.5997369856 -3.14E-01
   209 Broy./Diag. 0.80E-01    1.5     0.00229699     -5418.5526713769  4.71E-02
   210 Broy./Diag. 0.80E-01    1.5     0.00769612     -5418.2609896855  2.92E-01
   211 Broy./Diag. 0.80E-01    1.5     0.01782604     -5418.0575870167  2.03E-01
   212 Broy./Diag. 0.80E-01    1.5     0.03414724     -5418.1893421915 -1.32E-01
   213 Broy./Diag. 0.80E-01    1.5     0.02277058     -5418.5085305554 -3.19E-01
   214 Broy./Diag. 0.80E-01    1.5     0.01874483     -5418.4312870079  7.72E-02
   215 Broy./Diag. 0.80E-01    1.5     0.01572612     -5418.4485926142 -1.73E-02
   216 Broy./Diag. 0.80E-01    1.5     0.01883315     -5418.5194150607 -7.08E-02
   217 Broy./Diag. 0.80E-01    1.5     0.03495948     -5418.2537383149  2.66E-01
   218 Broy./Diag. 0.80E-01    1.5     0.00742273     -5418.0504211038  2.03E-01
   219 Broy./Diag. 0.80E-01    1.5     0.02208310     -5418.4935247661 -4.43E-01
   220 Broy./Diag. 0.80E-01    1.5     0.02159456     -5418.2769356981  2.17E-01
   221 Broy./Diag. 0.80E-01    1.5     0.01976550     -5418.2146517229  6.23E-02
   222 Broy./Diag. 0.80E-01    1.5     0.01613686     -5418.0798549073  1.35E-01
   223 Broy./Diag. 0.80E-01    1.5     0.08619494     -5418.0081078021  7.17E-02
   224 Broy./Diag. 0.80E-01    1.5     0.03822362     -5418.1050491344 -9.69E-02
   225 Broy./Diag. 0.80E-01    1.5     0.02663758     -5417.9755525304  1.29E-01
   226 Broy./Diag. 0.80E-01    1.5     0.05399801     -5417.9939513633 -1.84E-02
   227 Broy./Diag. 0.80E-01    1.5     0.02005858     -5418.0112229267 -1.73E-02
   228 Broy./Diag. 0.80E-01    1.5     0.07944162     -5418.2029499671 -1.92E-01
   229 Broy./Diag. 0.80E-01    1.5     0.03022956     -5417.7400944620  4.63E-01
   230 Broy./Diag. 0.80E-01    1.5     0.00362057     -5417.8874390579 -1.47E-01
   231 Broy./Diag. 0.80E-01    1.5     0.00422045     -5417.9367416898 -4.93E-02
   232 Broy./Diag. 0.80E-01    1.5     0.02649329     -5417.9322627214  4.48E-03
   233 Broy./Diag. 0.80E-01    1.5     0.02442401     -5418.0754994144 -1.43E-01
   234 Broy./Diag. 0.80E-01    1.5     0.04745038     -5418.2054882822 -1.30E-01
   235 Broy./Diag. 0.80E-01    1.5     0.01598610     -5417.9709678170  2.35E-01
   236 Broy./Diag. 0.80E-01    1.5     0.00663127     -5417.8539707448  1.17E-01
   237 Broy./Diag. 0.80E-01    1.5     0.05154429     -5417.9516030366 -9.76E-02
   238 Broy./Diag. 0.80E-01    1.5     0.02140806     -5418.0983267655 -1.47E-01
   239 Broy./Diag. 0.80E-01    1.5     0.01014986     -5417.9084162863  1.90E-01
   240 Broy./Diag. 0.80E-01    1.5     0.03858703     -5417.8536099012  5.48E-02
   241 Broy./Diag. 0.80E-01    1.5     0.01083393     -5417.6753307848  1.78E-01
   242 Broy./Diag. 0.80E-01    1.5     0.02044644     -5417.7933920444 -1.18E-01
   243 Broy./Diag. 0.80E-01    1.5     0.02176083     -5417.7621520015  3.12E-02
   244 Broy./Diag. 0.80E-01    1.5     0.01899756     -5417.9305291613 -1.68E-01
   245 Broy./Diag. 0.80E-01    1.5     0.01770069     -5417.9290453287  1.48E-03
   246 Broy./Diag. 0.80E-01    1.5     0.01297890     -5417.5951236835  3.34E-01
   247 Broy./Diag. 0.80E-01    1.5     0.01115136     -5417.3386186618  2.57E-01
   248 Broy./Diag. 0.80E-01    1.5     0.05859693     -5417.5689302446 -2.30E-01
   249 Broy./Diag. 0.80E-01    1.5     0.03107931     -5417.6274253902 -5.85E-02
   250 Broy./Diag. 0.80E-01    1.5     0.03318695     -5417.6042145249  2.32E-02
   251 Broy./Diag. 0.80E-01    1.5     0.02277108     -5417.6533943233 -4.92E-02
   252 Broy./Diag. 0.80E-01    1.5     0.04045474     -5417.6396327395  1.38E-02
   253 Broy./Diag. 0.80E-01    1.5     0.05171796     -5417.9748509630 -3.35E-01
   254 Broy./Diag. 0.80E-01    1.5     0.06324799     -5416.9732360424  1.00E+00
   255 Broy./Diag. 0.80E-01    1.5     0.01985145     -5418.1047596031 -1.13E+00
   256 Broy./Diag. 0.80E-01    1.5     0.00475658     -5417.8472971320  2.57E-01
   257 Broy./Diag. 0.80E-01    1.5     0.02955837     -5417.7711200046  7.62E-02
   258 Broy./Diag. 0.80E-01    1.5     0.04526394     -5417.5673100506  2.04E-01
   259 Broy./Diag. 0.80E-01    1.5     0.04949219     -5417.4326856599  1.35E-01
   260 Broy./Diag. 0.80E-01    1.5     0.02568423     -5417.4897301856 -5.70E-02
   261 Broy./Diag. 0.80E-01    1.5     0.01824369     -5417.4629169877  2.68E-02
   262 Broy./Diag. 0.80E-01    1.5     0.03615910     -5417.2783079231  1.85E-01
   263 Broy./Diag. 0.80E-01    1.5     0.04413004     -5417.3823463959 -1.04E-01
   264 Broy./Diag. 0.80E-01    1.5     0.03635893     -5417.5139231797 -1.32E-01
   265 Broy./Diag. 0.80E-01    1.5     0.00888317     -5417.4523935997  6.15E-02
   266 Broy./Diag. 0.80E-01    1.5     0.01709449     -5417.4268609931  2.55E-02
   267 Broy./Diag. 0.80E-01    1.5     0.02680762     -5417.8323935751 -4.06E-01
   268 Broy./Diag. 0.80E-01    1.5     0.00705054     -5418.1148575290 -2.82E-01
   269 Broy./Diag. 0.80E-01    1.5     0.02421522     -5418.1449912616 -3.01E-02
   270 Broy./Diag. 0.80E-01    1.5     0.01668606     -5417.9614686931  1.84E-01
   271 Broy./Diag. 0.80E-01    1.5     0.03934587     -5418.1546227322 -1.93E-01
   272 Broy./Diag. 0.80E-01    1.5     0.00558401     -5417.4604298248  6.94E-01
   273 Broy./Diag. 0.80E-01    1.5     0.05019798     -5418.2519644775 -7.92E-01
   274 Broy./Diag. 0.80E-01    1.5     0.04273232     -5418.5393170271 -2.87E-01
   275 Broy./Diag. 0.80E-01    1.5     0.06243811     -5418.1982655649  3.41E-01
   276 Broy./Diag. 0.80E-01    1.5     0.02881368     -5418.6655098201 -4.67E-01
   277 Broy./Diag. 0.80E-01    1.5     0.01253733     -5418.4463043253  2.19E-01
   278 Broy./Diag. 0.80E-01    1.5     0.01775539     -5418.4262855829  2.00E-02
   279 Broy./Diag. 0.80E-01    1.5     0.01214163     -5418.1517184395  2.75E-01
   280 Broy./Diag. 0.80E-01    1.5     0.01772784     -5417.8784901999  2.73E-01
   281 Broy./Diag. 0.80E-01    1.5     0.02977989     -5418.3006105728 -4.22E-01
   282 Broy./Diag. 0.80E-01    1.5     0.01603200     -5418.2674018607  3.32E-02
   283 Broy./Diag. 0.80E-01    1.5     0.01177637     -5418.4409544343 -1.74E-01
   284 Broy./Diag. 0.80E-01    1.5     0.01126135     -5418.1947317699  2.46E-01
   285 Broy./Diag. 0.80E-01    1.5     0.02591359     -5418.0237881123  1.71E-01
   286 Broy./Diag. 0.80E-01    1.5     0.05540078     -5417.9243347562  9.95E-02
   287 Broy./Diag. 0.80E-01    1.5     0.01560090     -5417.7364376250  1.88E-01
   288 Broy./Diag. 0.80E-01    1.5     0.01624328     -5418.0073399902 -2.71E-01
   289 Broy./Diag. 0.80E-01    1.5     0.00588319     -5417.8233203024  1.84E-01
   290 Broy./Diag. 0.80E-01    1.5     0.00870935     -5417.7429842966  8.03E-02
   291 Broy./Diag. 0.80E-01    1.5     0.02604188     -5417.7959307883 -5.29E-02
   292 Broy./Diag. 0.80E-01    1.5     0.01912040     -5417.8276298010 -3.17E-02
   293 Broy./Diag. 0.80E-01    1.5     0.05455874     -5417.6107434802  2.17E-01
   294 Broy./Diag. 0.80E-01    1.5     0.01495893     -5417.8865759180 -2.76E-01
   295 Broy./Diag. 0.80E-01    1.5     0.02711444     -5417.6330407755  2.54E-01
   296 Broy./Diag. 0.80E-01    1.5     0.02917976     -5417.3938784459  2.39E-01
   297 Broy./Diag. 0.80E-01    1.5     0.00406202     -5417.5482740475 -1.54E-01
   298 Broy./Diag. 0.80E-01    1.5     0.01843836     -5417.5187616448  2.95E-02
   299 Broy./Diag. 0.80E-01    1.5     0.02028633     -5417.4824615998  3.63E-02
   300 Broy./Diag. 0.80E-01    1.5     0.00558642     -5417.6953579676 -2.13E-01
   301 Broy./Diag. 0.80E-01    1.5     0.00953466     -5417.7788369748 -8.35E-02
   302 Broy./Diag. 0.80E-01    1.5     0.00912992     -5417.8364734340 -5.76E-02
   303 Broy./Diag. 0.80E-01    1.5     0.01041135     -5417.9776486492 -1.41E-01
   304 Broy./Diag. 0.80E-01    1.5     0.00974226     -5418.0224441353 -4.48E-02
   305 Broy./Diag. 0.80E-01    1.5     0.02338080     -5418.1106482848 -8.82E-02
   306 Broy./Diag. 0.80E-01    1.5     0.05446950     -5418.2115157443 -1.01E-01
   307 Broy./Diag. 0.80E-01    1.5     0.02491189     -5417.7851221495  4.26E-01
   308 Broy./Diag. 0.80E-01    1.5     0.03283212     -5417.6271612723  1.58E-01
   309 Broy./Diag. 0.80E-01    1.5     0.06625679     -5417.2966761202  3.30E-01
   310 Broy./Diag. 0.80E-01    1.5     0.02541838     -5417.9113647510 -6.15E-01
   311 Broy./Diag. 0.80E-01    1.5     0.02690515     -5417.8848657037  2.65E-02
   312 Broy./Diag. 0.80E-01    1.5     0.02915994     -5417.6995013240  1.85E-01
   313 Broy./Diag. 0.80E-01    1.5     0.05074811     -5417.3675895533  3.32E-01
   314 Broy./Diag. 0.80E-01    1.5     0.00274176     -5417.0974949705  2.70E-01
   315 Broy./Diag. 0.80E-01    1.5     0.02412364     -5417.0590892196  3.84E-02
   316 Broy./Diag. 0.80E-01    1.5     0.01258535     -5417.4456892434 -3.87E-01
   317 Broy./Diag. 0.80E-01    1.5     0.01193699     -5417.6416350466 -1.96E-01
   318 Broy./Diag. 0.80E-01    1.5     0.01088720     -5418.2196377493 -5.78E-01
   319 Broy./Diag. 0.80E-01    1.5     0.06543593     -5418.2689415116 -4.93E-02
   320 Broy./Diag. 0.80E-01    1.5     0.01556904     -5418.0930179550  1.76E-01
   321 Broy./Diag. 0.80E-01    1.5     0.00578086     -5418.2657455287 -1.73E-01
   322 Broy./Diag. 0.80E-01    1.5     0.03824470     -5418.1089188238  1.57E-01
   323 Broy./Diag. 0.80E-01    1.5     0.01310155     -5418.6577789986 -5.49E-01
   324 Broy./Diag. 0.80E-01    1.5     0.03664304     -5418.5787246861  7.91E-02
   325 Broy./Diag. 0.80E-01    1.5     0.03234216     -5418.8849202148 -3.06E-01
   326 Broy./Diag. 0.80E-01    1.5     0.01476649     -5418.5672585844  3.18E-01
   327 Broy./Diag. 0.80E-01    1.5     0.04570436     -5418.5019054706  6.54E-02
   328 Broy./Diag. 0.80E-01    1.5     0.00578609     -5419.3427941220 -8.41E-01
   329 Broy./Diag. 0.80E-01    1.5     0.03390917     -5419.1685058792  1.74E-01
   330 Broy./Diag. 0.80E-01    1.5     0.02240628     -5419.0924823164  7.60E-02
   331 Broy./Diag. 0.80E-01    1.5     0.03719838     -5418.6711357164  4.21E-01
   332 Broy./Diag. 0.80E-01    1.5     0.13485447     -5418.6901749886 -1.90E-02
   333 Broy./Diag. 0.80E-01    1.5     0.04919679     -5417.4775287959  1.21E+00
   334 Broy./Diag. 0.80E-01    1.5     0.04890618     -5417.8627008805 -3.85E-01
   335 Broy./Diag. 0.80E-01    1.5     0.03310028     -5417.3984966361  4.64E-01
   336 Broy./Diag. 0.80E-01    1.5     0.08473502     -5417.2062618411  1.92E-01
   337 Broy./Diag. 0.80E-01    1.5     0.00788753     -5417.4895008671 -2.83E-01
   338 Broy./Diag. 0.80E-01    1.5     0.04695365     -5417.6090332419 -1.20E-01
   339 Broy./Diag. 0.80E-01    1.5     0.08171251     -5417.6756763488 -6.66E-02
   340 Broy./Diag. 0.80E-01    1.5     0.03565457     -5417.8571309300 -1.81E-01
   341 Broy./Diag. 0.80E-01    1.5     0.01936184     -5417.8588910843 -1.76E-03
   342 Broy./Diag. 0.80E-01    1.5     0.02631648     -5417.7258545014  1.33E-01
   343 Broy./Diag. 0.80E-01    1.5     0.01193769     -5417.7322183355 -6.36E-03
   344 Broy./Diag. 0.80E-01    1.5     0.03707839     -5417.7898224151 -5.76E-02
   345 Broy./Diag. 0.80E-01    1.5     0.10642478     -5418.1701994772 -3.80E-01
   346 Broy./Diag. 0.80E-01    1.5     0.07915707     -5417.8204094586  3.50E-01
   347 Broy./Diag. 0.80E-01    1.5     0.06189151     -5417.4056039982  4.15E-01
   348 Broy./Diag. 0.80E-01    1.5     0.05228784     -5418.0647518770 -6.59E-01
   349 Broy./Diag. 0.80E-01    1.5     0.01125466     -5417.6035047472  4.61E-01
   350 Broy./Diag. 0.80E-01    1.5     0.00835732     -5417.3547815188  2.49E-01
   351 Broy./Diag. 0.80E-01    1.5     0.02462365     -5417.5210524467 -1.66E-01
   352 Broy./Diag. 0.80E-01    1.5     0.01005847     -5417.3501848036  1.71E-01
   353 Broy./Diag. 0.80E-01    1.5     0.00931919     -5417.7071957032 -3.57E-01
   354 Broy./Diag. 0.80E-01    1.5     0.00970676     -5417.6499765276  5.72E-02
   355 Broy./Diag. 0.80E-01    1.5     0.03489538     -5417.5365205765  1.13E-01
   356 Broy./Diag. 0.80E-01    1.5     0.01524377     -5417.4178810188  1.19E-01
   357 Broy./Diag. 0.80E-01    1.5     0.01812644     -5417.7074294318 -2.90E-01
   358 Broy./Diag. 0.80E-01    1.5     0.01590464     -5417.7733829783 -6.60E-02
   359 Broy./Diag. 0.80E-01    1.5     0.01831587     -5417.7511345307  2.22E-02
   360 Broy./Diag. 0.80E-01    1.5     0.00706022     -5417.9069979300 -1.56E-01
   361 Broy./Diag. 0.80E-01    1.5     0.00865703     -5417.9192147420 -1.22E-02
   362 Broy./Diag. 0.80E-01    1.5     0.00176604     -5417.8074919717  1.12E-01
   363 Broy./Diag. 0.80E-01    1.5     0.00528625     -5417.8021387116  5.35E-03
