 DBCSR| CPU Multiplication driver                                           XSMM (U)
 DBCSR| Multrec recursion limit                                              512 (U)
 DBCSR| Multiplication stack size                                           1000 (D)
 DBCSR| Maximum elements for images                                    UNLIMITED (U)
 DBCSR| Multiplicative factor virtual images                                   1 (U)
 DBCSR| Use multiplication densification                                       T (D)
 DBCSR| Multiplication size stacks                                             3 (U)
 DBCSR| Use memory pool for CPU allocation                                     F (U)
 DBCSR| Number of 3D layers                                               SINGLE (U)
 DBCSR| Use MPI memory allocation                                              F (U)
 DBCSR| Use RMA algorithm                                                      F (U)
 DBCSR| Use Communication thread                                               T (U)
 DBCSR| Communication thread load                                             87 (D)
 DBCSR| MPI: My process id                                                     0
 DBCSR| MPI: Number of processes                                             128
 DBCSR| OMP: Current number of threads                                         1
 DBCSR| OMP: Max number of threads                                             1
 DBCSR| Split modifier for TAS multiplication algorithm                  1.0E+00 (U)


  **** **** ******  **  PROGRAM STARTED AT               2023-02-15 12:08:33.289
 ***** ** ***  *** **   PROGRAM STARTED ON                             nid004131
 **    ****   ******    PROGRAM STARTED BY                                cahart
 ***** **    ** ** **   PROGRAM PROCESS ID                                 70170
  **** **  *******  **  PROGRAM STARTED IN /mnt/lustre/a2fs-work2/work/e05/e05/c
                                           ahart/postdoc/masters/ni/archer2/slab
                                           /optimise/magnetisation/scf_1e-4_temp
                                           -2000_mos-1000_alpha-0.08_beta-1.5_pe
                                           riodic-xyz/search/0.30_0.6

 CP2K| version string:                 CP2K version 2023.1 (Development Version)
 CP2K| source code revision number:                                  git:964cd58
 CP2K| cp2kflags: omp libint fftw3 libxc elpa parallel scalapack xsmm plumed2 mk
 CP2K|            l
 CP2K| is freely available from                            https://www.cp2k.org/
 CP2K| Program compiled at                          Mon 13 Feb 17:05:14 GMT 2023
 CP2K| Program compiled on                                                  ln01
 CP2K| Program compiled for                                              ARCHER2
 CP2K| Data directory path    /work/e05/e05/cahart/cp2k/cp2k-2023.1/cp2k-2023.1-
 CP2K| Input file name                                                  cp2k.inp

 GLOBAL| Force Environment number                                              1
 GLOBAL| Basis set file name                                        BASIS_MOLOPT
 GLOBAL| Potential file name                                      GTH_POTENTIALS
 GLOBAL| MM Potential file name                                     MM_POTENTIAL
 GLOBAL| Coordinate file name                                      __STD_INPUT__
 GLOBAL| Method name                                                        CP2K
 GLOBAL| Project name                                                    Ni_bulk
 GLOBAL| Run type                                                         ENERGY
 GLOBAL| FFT library                                                       FFTW3
 GLOBAL| Diagonalization library                                            ELPA
 GLOBAL| DGEMM library                                                      BLAS
 GLOBAL| Minimum number of eigenvectors for ELPA usage                        16
 GLOBAL| Orthonormality check for eigenvectors                          DISABLED
 GLOBAL| Matrix multiplication library                                 ScaLAPACK
 GLOBAL| All-to-all communication in single precision                          F
 GLOBAL| FFTs using library dependent lengths                                  F
 GLOBAL| Grid backend                                                       AUTO
 GLOBAL| Global print level                                               MEDIUM
 GLOBAL| MPI I/O enabled                                                       T
 GLOBAL| Total number of message passing processes                           128
 GLOBAL| Number of threads for this process                                    1
 GLOBAL| This output is from process                                           0
 GLOBAL| Stack size for threads created by OpenMP (OMP_STACKSIZE)        default
 GLOBAL| CPU model name                          AMD EPYC 7742 64-Core Processor
 GLOBAL| CPUID                                                              1002

 MEMORY| system memory details [Kb]
 MEMORY|                        rank 0           min           max       average
 MEMORY| MemTotal            263528088     263528088     263528088     263528088
 MEMORY| MemFree             239493972     239493972     239493972     239493972
 MEMORY| Buffers                 28844         28844         28844         28844
 MEMORY| Cached                 595272        595204        595272        595245
 MEMORY| Slab                  1439020       1439016       1439020       1439018
 MEMORY| SReclaimable           101368        101364        101368        101366
 MEMORY| MemLikelyFree       240219456     240219384     240219456     240219427


 *** Fundamental physical constants (SI units) ***

 *** Literature: B. J. Mohr and B. N. Taylor,
 ***             CODATA recommended values of the fundamental physical
 ***             constants: 2006, Web Version 5.1
 ***             http://physics.nist.gov/constants

 Speed of light in vacuum [m/s]                             2.99792458000000E+08
 Magnetic constant or permeability of vacuum [N/A**2]       1.25663706143592E-06
 Electric constant or permittivity of vacuum [F/m]          8.85418781762039E-12
 Planck constant (h) [J*s]                                  6.62606896000000E-34
 Planck constant (h-bar) [J*s]                              1.05457162825177E-34
 Elementary charge [C]                                      1.60217648700000E-19
 Electron mass [kg]                                         9.10938215000000E-31
 Electron g factor [ ]                                     -2.00231930436220E+00
 Proton mass [kg]                                           1.67262163700000E-27
 Fine-structure constant                                    7.29735253760000E-03
 Rydberg constant [1/m]                                     1.09737315685270E+07
 Avogadro constant [1/mol]                                  6.02214179000000E+23
 Boltzmann constant [J/K]                                   1.38065040000000E-23
 Atomic mass unit [kg]                                      1.66053878200000E-27
 Bohr radius [m]                                            5.29177208590000E-11

 *** Conversion factors ***

 [u] -> [a.u.]                                              1.82288848426455E+03
 [Angstrom] -> [Bohr] = [a.u.]                              1.88972613288564E+00
 [a.u.] = [Bohr] -> [Angstrom]                              5.29177208590000E-01
 [a.u.] -> [s]                                              2.41888432650478E-17
 [a.u.] -> [fs]                                             2.41888432650478E-02
 [a.u.] -> [J]                                              4.35974393937059E-18
 [a.u.] -> [N]                                              8.23872205491840E-08
 [a.u.] -> [K]                                              3.15774647902944E+05
 [a.u.] -> [kJ/mol]                                         2.62549961709828E+03
 [a.u.] -> [kcal/mol]                                       6.27509468713739E+02
 [a.u.] -> [Pa]                                             2.94210107994716E+13
 [a.u.] -> [bar]                                            2.94210107994716E+08
 [a.u.] -> [atm]                                            2.90362800883016E+08
 [a.u.] -> [eV]                                             2.72113838565563E+01
 [a.u.] -> [Hz]                                             6.57968392072181E+15
 [a.u.] -> [1/cm] (wave numbers)                            2.19474631370540E+05
 [a.u./Bohr**2] -> [1/cm]                                   5.14048714338585E+03
 

 CELL_TOP| Volume [angstrom^3]:                                       983.249569
 CELL_TOP| Vector a [angstrom     7.012     0.000     0.000   |a| =     7.011596
 CELL_TOP| Vector b [angstrom     0.000     7.012     0.000   |b| =     7.011596
 CELL_TOP| Vector c [angstrom     0.000     0.000    20.000   |c| =    20.000000
 CELL_TOP| Angle (b,c), alpha [degree]:                                90.000000
 CELL_TOP| Angle (a,c), beta  [degree]:                                90.000000
 CELL_TOP| Angle (a,b), gamma [degree]:                                90.000000
 CELL_TOP| Numerically orthorhombic:                                         YES
 CELL_TOP| Periodicity                                                       XYZ

 GENERATE|  Preliminary Number of Bonds generated:                             0
 GENERATE|  Achieved consistency in connectivity generation.

 CELL| Volume [angstrom^3]:                                           983.249569
 CELL| Vector a [angstrom]:       7.012     0.000     0.000   |a| =     7.011596
 CELL| Vector b [angstrom]:       0.000     7.012     0.000   |b| =     7.011596
 CELL| Vector c [angstrom]:       0.000     0.000    20.000   |c| =    20.000000
 CELL| Angle (b,c), alpha [degree]:                                    90.000000
 CELL| Angle (a,c), beta  [degree]:                                    90.000000
 CELL| Angle (a,b), gamma [degree]:                                    90.000000
 CELL| Numerically orthorhombic:                                             YES
 CELL| Periodicity                                                           XYZ

 CELL_REF| Volume [angstrom^3]:                                       983.249569
 CELL_REF| Vector a [angstrom     7.012     0.000     0.000   |a| =     7.011596
 CELL_REF| Vector b [angstrom     0.000     7.012     0.000   |b| =     7.011596
 CELL_REF| Vector c [angstrom     0.000     0.000    20.000   |c| =    20.000000
 CELL_REF| Angle (b,c), alpha [degree]:                                90.000000
 CELL_REF| Angle (a,c), beta  [degree]:                                90.000000
 CELL_REF| Angle (a,b), gamma [degree]:                                90.000000
 CELL_REF| Numerically orthorhombic:                                         YES
 CELL_REF| Periodicity                                                       XYZ

 *** WARNING in cryssym.F:165 :: Symmetry library SPGLIB not available ***


 *******************************************************************************
                                    Kpoints
 *******************************************************************************
 BRILLOUIN| K-point scheme                                        Monkhorst-Pack
 BRILLOUIN| K-Point grid                                             4    4    1
 BRILLOUIN| Accuracy in Symmetry determination                      0.100000E-05
 BRILLOUIN| K-Point point group symmetrization                               OFF
 BRILLOUIN| Wavefunction type                                            COMPLEX
 BRILLOUIN| List of Kpoints [2 Pi/Bohr]                                        8
 BRILLOUIN| Number           Weight            X              Y              Z
 BRILLOUIN|     1           0.12500       -0.37500       -0.37500        0.00000
 BRILLOUIN|     2           0.12500       -0.37500       -0.12500        0.00000
 BRILLOUIN|     3           0.12500       -0.37500        0.12500        0.00000
 BRILLOUIN|     4           0.12500       -0.37500        0.37500        0.00000
 BRILLOUIN|     5           0.12500       -0.12500       -0.37500        0.00000
 BRILLOUIN|     6           0.12500       -0.12500       -0.12500        0.00000
 BRILLOUIN|     7           0.12500       -0.12500        0.12500        0.00000
 BRILLOUIN|     8           0.12500       -0.12500        0.37500        0.00000
 *******************************************************************************

 *******************************************************************************
 *******************************************************************************
 **                                                                           **
 **     #####                         ##              ##                      **
 **    ##   ##            ##          ##              ##                      **
 **   ##     ##                       ##            ######                    **
 **   ##     ##  ##   ##  ##   #####  ##  ##   ####   ##    #####    #####    **
 **   ##     ##  ##   ##  ##  ##      ## ##   ##      ##   ##   ##  ##   ##   **
 **   ##  ## ##  ##   ##  ##  ##      ####     ###    ##   ######   ######    **
 **    ##  ###   ##   ##  ##  ##      ## ##      ##   ##   ##       ##        **
 **     #######   #####   ##   #####  ##  ##  ####    ##    #####   ##        **
 **           ##                                                    ##        **
 **                                                                           **
 **                                                ... make the atoms dance   **
 **                                                                           **
 **            Copyright (C) by CP2K developers group (2000-2023)             **
 **                      J. Chem. Phys. 152, 194103 (2020)                    **
 **                                                                           **
 *******************************************************************************

 *** WARNING in qs_environment.F:1456 :: Number of electrons will be ***
 *** overwritten by NELEC_ALPHA and NELEC_BETA, multiplicity will be ***
 *** ignored.                                                        ***

 Number of electrons should be                                               576
 Sum of NELEC_ALPHA and NELEC_BETA is                                    576.000

 *** WARNING in qs_environment.F:1488 :: NELEC_ALPHA is not an integer, ***
 *** many features will not be supported.                               ***


 *** WARNING in qs_environment.F:1500 :: NELEC_BETA is not an integer, ***
 *** many features will not be supported.                              ***


 *** WARNING in qs_environment.F:1532 :: More ADDED_MOs requested for beta ***
 *** spin than available.                                                  ***


 *** WARNING in qs_environment.F:1548 :: More added MOs requested than     ***
 *** available. The full set of unoccupied MOs will be used. Use           ***
 *** 'ADDED_MOS -1' to always use all available MOs and to get rid of this ***
 *** warning.                                                              ***


 DFT| Spin unrestricted (spin-polarized) Kohn-Sham calculation               UKS
 DFT| Multiplicity                                                             1
 DFT| Number of spin states                                                    2
 DFT| Charge                                                                   0
 DFT| Self-interaction correction (SIC)                                       NO
 DFT| Cutoffs: density                                              1.000000E-10
 DFT|          gradient                                             1.000000E-10
 DFT|          tau                                                  1.000000E-10
 DFT|          cutoff_smoothing_range                               0.000000E+00
 DFT| XC density smoothing                                                  NONE
 DFT| XC derivatives                                                          PW

 FUNCTIONAL| PBE:
 FUNCTIONAL| J.P.Perdew, K.Burke, M.Ernzerhof, Phys. Rev. Letter, vol. 77, n 18,
 FUNCTIONAL|  pp. 3865-3868, (1996){spin polarized}                             

 vdW POTENTIAL|                                                   Pair Potential
 vdW POTENTIAL|          DFT-D3 (Version 3.1)
 vdW POTENTIAL|          Potential Form: S. Grimme et al, JCP 132: 154104 (2010)
 vdW POTENTIAL|          Zero Damping
 vdW POTENTIAL|          Cutoff Radius [Bohr]:                             20.00
 vdW POTENTIAL|          s6 Scaling Factor:                               1.0000
 vdW POTENTIAL|          sr6 Scaling Factor:                              1.2170
 vdW POTENTIAL|          s8 Scaling Factor:                               0.7220
 vdW POTENTIAL|          Cutoff for CN calculation:                   0.1000E-05

 QS| Method:                                                                 GPW
 QS| Density plane wave grid type                        NON-SPHERICAL FULLSPACE
 QS| Number of grid levels:                                                    5
 QS| Density cutoff [a.u.]:                                                300.0
 QS| Multi grid cutoff [a.u.]: 1) grid level                               300.0
 QS|                           2) grid level                               100.0
 QS|                           3) grid level                                33.3
 QS|                           4) grid level                                11.1
 QS|                           5) grid level                                 3.7
 QS| Grid level progression factor:                                          3.0
 QS| Relative density cutoff [a.u.]:                                        30.0
 QS| Interaction thresholds: eps_pgf_orb:                                1.0E-06
 QS|                         eps_filter_matrix:                          0.0E+00
 QS|                         eps_core_charge:                            1.0E-14
 QS|                         eps_rho_gspace:                             1.0E-12
 QS|                         eps_rho_rspace:                             1.0E-12
 QS|                         eps_gvg_rspace:                             1.0E-06
 QS|                         eps_ppl:                                    1.0E-02
 QS|                         eps_ppnl:                                   1.0E-08


 ATOMIC KIND INFORMATION

  1. Atomic kind: Ni_i                                  Number of atoms:      16

     Orbital Basis Set                                        DZVP-MOLOPT-SR-GTH

       Number of orbital shell sets:                                           1
       Number of orbital shells:                                               8
       Number of primitive Cartesian functions:                                6
       Number of Cartesian basis functions:                                   31
       Number of spherical basis functions:                                   26
       Norm type:                                                              2

       Normalised Cartesian orbitals:

                        Set   Shell   Orbital            Exponent    Coefficient

                          1       1    2s               10.077428      -0.684558
                                                         5.847736      -0.844524
                                                         2.494033       1.088856
                                                         0.988355       0.395503
                                                         0.344978       0.010224
                                                         0.099466      -0.003250

                          1       2    3s               10.077428       0.096747
                                                         5.847736       0.162504
                                                         2.494033      -0.297192
                                                         0.988355      -0.319752
                                                         0.344978       0.088318
                                                         0.099466       0.118587

                          1       3    4s               10.077428       0.036437
                                                         5.847736      -0.381480
                                                         2.494033       0.003759
                                                         0.988355      -1.048256
                                                         0.344978       0.855825
                                                         0.099466      -0.176350

                          1       4    3px              10.077428      -3.133913
                                                         5.847736       3.027656
                                                         2.494033       2.353227
                                                         0.988355       0.554184
                                                         0.344978       0.019462
                                                         0.099466      -0.000291
                          1       4    3py              10.077428      -3.133913
                                                         5.847736       3.027656
                                                         2.494033       2.353227
                                                         0.988355       0.554184
                                                         0.344978       0.019462
                                                         0.099466      -0.000291
                          1       4    3pz              10.077428      -3.133913
                                                         5.847736       3.027656
                                                         2.494033       2.353227
                                                         0.988355       0.554184
                                                         0.344978       0.019462
                                                         0.099466      -0.000291

                          1       5    4px              10.077428      -0.112729
                                                         5.847736      -0.114008
                                                         2.494033      -0.347303
                                                         0.988355      -0.110323
                                                         0.344978       0.154096
                                                         0.099466       0.058386
                          1       5    4py              10.077428      -0.112729
                                                         5.847736      -0.114008
                                                         2.494033      -0.347303
                                                         0.988355      -0.110323
                                                         0.344978       0.154096
                                                         0.099466       0.058386
                          1       5    4pz              10.077428      -0.112729
                                                         5.847736      -0.114008
                                                         2.494033      -0.347303
                                                         0.988355      -0.110323
                                                         0.344978       0.154096
                                                         0.099466       0.058386

                          1       6    4dx2             10.077428       8.232726
                                                         5.847736       9.105758
                                                         2.494033       2.849835
                                                         0.988355       0.554319
                                                         0.344978       0.067245
                                                         0.099466       0.001940
                          1       6    4dxy             10.077428      14.259500
                                                         5.847736      15.771636
                                                         2.494033       4.936060
                                                         0.988355       0.960109
                                                         0.344978       0.116472
                                                         0.099466       0.003360
                          1       6    4dxz             10.077428      14.259500
                                                         5.847736      15.771636
                                                         2.494033       4.936060
                                                         0.988355       0.960109
                                                         0.344978       0.116472
                                                         0.099466       0.003360
                          1       6    4dy2             10.077428       8.232726
                                                         5.847736       9.105758
                                                         2.494033       2.849835
                                                         0.988355       0.554319
                                                         0.344978       0.067245
                                                         0.099466       0.001940
                          1       6    4dyz             10.077428      14.259500
                                                         5.847736      15.771636
                                                         2.494033       4.936060
                                                         0.988355       0.960109
                                                         0.344978       0.116472
                                                         0.099466       0.003360
                          1       6    4dz2             10.077428       8.232726
                                                         5.847736       9.105758
                                                         2.494033       2.849835
                                                         0.988355       0.554319
                                                         0.344978       0.067245
                                                         0.099466       0.001940

                          1       7    5dx2             10.077428      -2.715373
                                                         5.847736      -4.020640
                                                         2.494033      -1.397569
                                                         0.988355      -0.076143
                                                         0.344978       0.033435
                                                         0.099466       0.026032
                          1       7    5dxy             10.077428      -4.703164
                                                         5.847736      -6.963952
                                                         2.494033      -2.420661
                                                         0.988355      -0.131883
                                                         0.344978       0.057911
                                                         0.099466       0.045088
                          1       7    5dxz             10.077428      -4.703164
                                                         5.847736      -6.963952
                                                         2.494033      -2.420661
                                                         0.988355      -0.131883
                                                         0.344978       0.057911
                                                         0.099466       0.045088
                          1       7    5dy2             10.077428      -2.715373
                                                         5.847736      -4.020640
                                                         2.494033      -1.397569
                                                         0.988355      -0.076143
                                                         0.344978       0.033435
                                                         0.099466       0.026032
                          1       7    5dyz             10.077428      -4.703164
                                                         5.847736      -6.963952
                                                         2.494033      -2.420661
                                                         0.988355      -0.131883
                                                         0.344978       0.057911
                                                         0.099466       0.045088
                          1       7    5dz2             10.077428      -2.715373
                                                         5.847736      -4.020640
                                                         2.494033      -1.397569
                                                         0.988355      -0.076143
                                                         0.344978       0.033435
                                                         0.099466       0.026032

                          1       8    5fx3             10.077428      -0.467694
                                                         5.847736       0.618100
                                                         2.494033       0.066069
                                                         0.988355       0.262898
                                                         0.344978       0.004720
                                                         0.099466       0.007748
                          1       8    5fx2y            10.077428      -1.045795
                                                         5.847736       1.382114
                                                         2.494033       0.147734
                                                         0.988355       0.587859
                                                         0.344978       0.010555
                                                         0.099466       0.017325
                          1       8    5fx2z            10.077428      -1.045795
                                                         5.847736       1.382114
                                                         2.494033       0.147734
                                                         0.988355       0.587859
                                                         0.344978       0.010555
                                                         0.099466       0.017325
                          1       8    5fxy2            10.077428      -1.045795
                                                         5.847736       1.382114
                                                         2.494033       0.147734
                                                         0.988355       0.587859
                                                         0.344978       0.010555
                                                         0.099466       0.017325
                          1       8    5fxyz            10.077428      -1.811371
                                                         5.847736       2.393892
                                                         2.494033       0.255883
                                                         0.988355       1.018201
                                                         0.344978       0.018282
                                                         0.099466       0.030008
                          1       8    5fxz2            10.077428      -1.045795
                                                         5.847736       1.382114
                                                         2.494033       0.147734
                                                         0.988355       0.587859
                                                         0.344978       0.010555
                                                         0.099466       0.017325
                          1       8    5fy3             10.077428      -0.467694
                                                         5.847736       0.618100
                                                         2.494033       0.066069
                                                         0.988355       0.262898
                                                         0.344978       0.004720
                                                         0.099466       0.007748
                          1       8    5fy2z            10.077428      -1.045795
                                                         5.847736       1.382114
                                                         2.494033       0.147734
                                                         0.988355       0.587859
                                                         0.344978       0.010555
                                                         0.099466       0.017325
                          1       8    5fyz2            10.077428      -1.045795
                                                         5.847736       1.382114
                                                         2.494033       0.147734
                                                         0.988355       0.587859
                                                         0.344978       0.010555
                                                         0.099466       0.017325
                          1       8    5fz3             10.077428      -0.467694
                                                         5.847736       0.618100
                                                         2.494033       0.066069
                                                         0.988355       0.262898
                                                         0.344978       0.004720
                                                         0.099466       0.007748

       Atomic covalent radius [Angstrom]:                                  1.150

       Atomic van der Waals radius [Angstrom]:                             1.630

     GTH Potential information for                                   GTH-PBE-q18

       Description:                       Goedecker-Teter-Hutter pseudopotential
                                           Goedecker et al., PRB 54, 1703 (1996)
                                          Hartwigsen et al., PRB 58, 3641 (1998)
                                                      Krack, TCA 114, 145 (2005)

       Gaussian exponent of the core charge distribution:               4.081633
       Electronic configuration (s p d ...):                           4   6   8

       Parameters of the local part of the GTH pseudopotential:

                          rloc        C1          C2          C3          C4
                        0.350000    2.102166    0.648484

       Parameters of the non-local part of the GTH pseudopotential:

                   l      r(l)      h(i,j,l)

                   0    0.261295    0.622658    9.970227
                                    9.970227  -12.871507
                   1    0.224253  -11.142708   12.429566
                                   12.429566  -14.706861
                   2    0.215348  -12.628146

  2. Atomic kind: Ni_b                                  Number of atoms:      16

     Orbital Basis Set                                        DZVP-MOLOPT-SR-GTH

       Number of orbital shell sets:                                           1
       Number of orbital shells:                                               8
       Number of primitive Cartesian functions:                                6
       Number of Cartesian basis functions:                                   31
       Number of spherical basis functions:                                   26
       Norm type:                                                              2

       Normalised Cartesian orbitals:

                        Set   Shell   Orbital            Exponent    Coefficient

                          1       1    2s               10.077428      -0.684558
                                                         5.847736      -0.844524
                                                         2.494033       1.088856
                                                         0.988355       0.395503
                                                         0.344978       0.010224
                                                         0.099466      -0.003250

                          1       2    3s               10.077428       0.096747
                                                         5.847736       0.162504
                                                         2.494033      -0.297192
                                                         0.988355      -0.319752
                                                         0.344978       0.088318
                                                         0.099466       0.118587

                          1       3    4s               10.077428       0.036437
                                                         5.847736      -0.381480
                                                         2.494033       0.003759
                                                         0.988355      -1.048256
                                                         0.344978       0.855825
                                                         0.099466      -0.176350

                          1       4    3px              10.077428      -3.133913
                                                         5.847736       3.027656
                                                         2.494033       2.353227
                                                         0.988355       0.554184
                                                         0.344978       0.019462
                                                         0.099466      -0.000291
                          1       4    3py              10.077428      -3.133913
                                                         5.847736       3.027656
                                                         2.494033       2.353227
                                                         0.988355       0.554184
                                                         0.344978       0.019462
                                                         0.099466      -0.000291
                          1       4    3pz              10.077428      -3.133913
                                                         5.847736       3.027656
                                                         2.494033       2.353227
                                                         0.988355       0.554184
                                                         0.344978       0.019462
                                                         0.099466      -0.000291

                          1       5    4px              10.077428      -0.112729
                                                         5.847736      -0.114008
                                                         2.494033      -0.347303
                                                         0.988355      -0.110323
                                                         0.344978       0.154096
                                                         0.099466       0.058386
                          1       5    4py              10.077428      -0.112729
                                                         5.847736      -0.114008
                                                         2.494033      -0.347303
                                                         0.988355      -0.110323
                                                         0.344978       0.154096
                                                         0.099466       0.058386
                          1       5    4pz              10.077428      -0.112729
                                                         5.847736      -0.114008
                                                         2.494033      -0.347303
                                                         0.988355      -0.110323
                                                         0.344978       0.154096
                                                         0.099466       0.058386

                          1       6    4dx2             10.077428       8.232726
                                                         5.847736       9.105758
                                                         2.494033       2.849835
                                                         0.988355       0.554319
                                                         0.344978       0.067245
                                                         0.099466       0.001940
                          1       6    4dxy             10.077428      14.259500
                                                         5.847736      15.771636
                                                         2.494033       4.936060
                                                         0.988355       0.960109
                                                         0.344978       0.116472
                                                         0.099466       0.003360
                          1       6    4dxz             10.077428      14.259500
                                                         5.847736      15.771636
                                                         2.494033       4.936060
                                                         0.988355       0.960109
                                                         0.344978       0.116472
                                                         0.099466       0.003360
                          1       6    4dy2             10.077428       8.232726
                                                         5.847736       9.105758
                                                         2.494033       2.849835
                                                         0.988355       0.554319
                                                         0.344978       0.067245
                                                         0.099466       0.001940
                          1       6    4dyz             10.077428      14.259500
                                                         5.847736      15.771636
                                                         2.494033       4.936060
                                                         0.988355       0.960109
                                                         0.344978       0.116472
                                                         0.099466       0.003360
                          1       6    4dz2             10.077428       8.232726
                                                         5.847736       9.105758
                                                         2.494033       2.849835
                                                         0.988355       0.554319
                                                         0.344978       0.067245
                                                         0.099466       0.001940

                          1       7    5dx2             10.077428      -2.715373
                                                         5.847736      -4.020640
                                                         2.494033      -1.397569
                                                         0.988355      -0.076143
                                                         0.344978       0.033435
                                                         0.099466       0.026032
                          1       7    5dxy             10.077428      -4.703164
                                                         5.847736      -6.963952
                                                         2.494033      -2.420661
                                                         0.988355      -0.131883
                                                         0.344978       0.057911
                                                         0.099466       0.045088
                          1       7    5dxz             10.077428      -4.703164
                                                         5.847736      -6.963952
                                                         2.494033      -2.420661
                                                         0.988355      -0.131883
                                                         0.344978       0.057911
                                                         0.099466       0.045088
                          1       7    5dy2             10.077428      -2.715373
                                                         5.847736      -4.020640
                                                         2.494033      -1.397569
                                                         0.988355      -0.076143
                                                         0.344978       0.033435
                                                         0.099466       0.026032
                          1       7    5dyz             10.077428      -4.703164
                                                         5.847736      -6.963952
                                                         2.494033      -2.420661
                                                         0.988355      -0.131883
                                                         0.344978       0.057911
                                                         0.099466       0.045088
                          1       7    5dz2             10.077428      -2.715373
                                                         5.847736      -4.020640
                                                         2.494033      -1.397569
                                                         0.988355      -0.076143
                                                         0.344978       0.033435
                                                         0.099466       0.026032

                          1       8    5fx3             10.077428      -0.467694
                                                         5.847736       0.618100
                                                         2.494033       0.066069
                                                         0.988355       0.262898
                                                         0.344978       0.004720
                                                         0.099466       0.007748
                          1       8    5fx2y            10.077428      -1.045795
                                                         5.847736       1.382114
                                                         2.494033       0.147734
                                                         0.988355       0.587859
                                                         0.344978       0.010555
                                                         0.099466       0.017325
                          1       8    5fx2z            10.077428      -1.045795
                                                         5.847736       1.382114
                                                         2.494033       0.147734
                                                         0.988355       0.587859
                                                         0.344978       0.010555
                                                         0.099466       0.017325
                          1       8    5fxy2            10.077428      -1.045795
                                                         5.847736       1.382114
                                                         2.494033       0.147734
                                                         0.988355       0.587859
                                                         0.344978       0.010555
                                                         0.099466       0.017325
                          1       8    5fxyz            10.077428      -1.811371
                                                         5.847736       2.393892
                                                         2.494033       0.255883
                                                         0.988355       1.018201
                                                         0.344978       0.018282
                                                         0.099466       0.030008
                          1       8    5fxz2            10.077428      -1.045795
                                                         5.847736       1.382114
                                                         2.494033       0.147734
                                                         0.988355       0.587859
                                                         0.344978       0.010555
                                                         0.099466       0.017325
                          1       8    5fy3             10.077428      -0.467694
                                                         5.847736       0.618100
                                                         2.494033       0.066069
                                                         0.988355       0.262898
                                                         0.344978       0.004720
                                                         0.099466       0.007748
                          1       8    5fy2z            10.077428      -1.045795
                                                         5.847736       1.382114
                                                         2.494033       0.147734
                                                         0.988355       0.587859
                                                         0.344978       0.010555
                                                         0.099466       0.017325
                          1       8    5fyz2            10.077428      -1.045795
                                                         5.847736       1.382114
                                                         2.494033       0.147734
                                                         0.988355       0.587859
                                                         0.344978       0.010555
                                                         0.099466       0.017325
                          1       8    5fz3             10.077428      -0.467694
                                                         5.847736       0.618100
                                                         2.494033       0.066069
                                                         0.988355       0.262898
                                                         0.344978       0.004720
                                                         0.099466       0.007748

       Atomic covalent radius [Angstrom]:                                  1.150

       Atomic van der Waals radius [Angstrom]:                             1.630

     GTH Potential information for                                   GTH-PBE-q18

       Description:                       Goedecker-Teter-Hutter pseudopotential
                                           Goedecker et al., PRB 54, 1703 (1996)
                                          Hartwigsen et al., PRB 58, 3641 (1998)
                                                      Krack, TCA 114, 145 (2005)

       Gaussian exponent of the core charge distribution:               4.081633
       Electronic configuration (s p d ...):                           4   6   8

       Parameters of the local part of the GTH pseudopotential:

                          rloc        C1          C2          C3          C4
                        0.350000    2.102166    0.648484

       Parameters of the non-local part of the GTH pseudopotential:

                   l      r(l)      h(i,j,l)

                   0    0.261295    0.622658    9.970227
                                    9.970227  -12.871507
                   1    0.224253  -11.142708   12.429566
                                   12.429566  -14.706861
                   2    0.215348  -12.628146


 MOLECULE KIND INFORMATION


 All atoms are their own molecule, skipping detailed information


 TOTAL NUMBERS AND MAXIMUM NUMBERS

  Total number of            - Atomic kinds:                                   2
                             - Atoms:                                         32
                             - Shell sets:                                    32
                             - Shells:                                       256
                             - Primitive Cartesian functions:                192
                             - Cartesian basis functions:                    992
                             - Spherical basis functions:                    832

  Maximum angular momentum of- Orbital basis functions:                        3
                             - Local part of the GTH pseudopotential:          2
                             - Non-local part of the GTH pseudopotential:      3


 MODULE QUICKSTEP: ATOMIC COORDINATES IN ANGSTROM

   Atom Kind Element         X             Y             Z       Z(eff)     Mass
      1    1 Ni   28      0.876298      0.876298      7.370500  18.0000  58.6934
      2    1 Ni   28      0.876298      4.382298      7.370500  18.0000  58.6934
      3    1 Ni   28      2.629298      2.629298      7.370500  18.0000  58.6934
      4    1 Ni   28      2.629298      6.135298      7.370500  18.0000  58.6934
      5    1 Ni   28      4.382298      0.876298      7.370500  18.0000  58.6934
      6    1 Ni   28      4.382298      4.382298      7.370500  18.0000  58.6934
      7    1 Ni   28      6.135298      2.629298      7.370500  18.0000  58.6934
      8    1 Ni   28      6.135298      6.135298      7.370500  18.0000  58.6934
      9    2 Ni   28      0.876298      2.629298      9.123500  18.0000  58.6934
     10    2 Ni   28      0.876298      6.135298      9.123500  18.0000  58.6934
     11    2 Ni   28      2.629298      0.876298      9.123500  18.0000  58.6934
     12    2 Ni   28      2.629298      4.382298      9.123500  18.0000  58.6934
     13    2 Ni   28      4.382298      2.629298      9.123500  18.0000  58.6934
     14    2 Ni   28      4.382298      6.135298      9.123500  18.0000  58.6934
     15    2 Ni   28      6.135298      0.876298      9.123500  18.0000  58.6934
     16    2 Ni   28      6.135298      4.382298      9.123500  18.0000  58.6934
     17    2 Ni   28      0.876298      0.876298     10.876500  18.0000  58.6934
     18    2 Ni   28      0.876298      4.382298     10.876500  18.0000  58.6934
     19    2 Ni   28      2.629298      2.629298     10.876500  18.0000  58.6934
     20    2 Ni   28      2.629298      6.135298     10.876500  18.0000  58.6934
     21    2 Ni   28      4.382298      0.876298     10.876500  18.0000  58.6934
     22    2 Ni   28      4.382298      4.382298     10.876500  18.0000  58.6934
     23    2 Ni   28      6.135298      2.629298     10.876500  18.0000  58.6934
     24    2 Ni   28      6.135298      6.135298     10.876500  18.0000  58.6934
     25    1 Ni   28      0.876298      2.629298     12.629500  18.0000  58.6934
     26    1 Ni   28      0.876298      6.135298     12.629500  18.0000  58.6934
     27    1 Ni   28      2.629298      0.876298     12.629500  18.0000  58.6934
     28    1 Ni   28      2.629298      4.382298     12.629500  18.0000  58.6934
     29    1 Ni   28      4.382298      2.629298     12.629500  18.0000  58.6934
     30    1 Ni   28      4.382298      6.135298     12.629500  18.0000  58.6934
     31    1 Ni   28      6.135298      0.876298     12.629500  18.0000  58.6934
     32    1 Ni   28      6.135298      4.382298     12.629500  18.0000  58.6934



 SCF PARAMETERS         Density guess:                                    ATOMIC
                        --------------------------------------------------------
                        max_scf:                                             500
                        max_scf_history:                                       0
                        max_diis:                                              4
                        --------------------------------------------------------
                        eps_scf:                                        1.00E-04
                        eps_scf_history:                                0.00E+00
                        eps_diis:                                       1.00E-01
                        eps_eigval:                                     1.00E-05
                        --------------------------------------------------------
                        level_shift [a.u.]:                             0.000000
                        added MOs                                       536  551
                        --------------------------------------------------------
                        Mixing method:                            BROYDEN_MIXING
                                                charge density mixing in g-space
                        --------------------------------------------------------
                        Smear method:                                FERMI_DIRAC
                        Electronic temperature [K]:                       2000.0
                        Electronic temperature [a.u.]:                  6.33E-03
                        Accuracy threshold:                             1.00E-10
                        --------------------------------------------------------
                        No outer SCF

 PW_GRID| Information for grid number                                          1
 PW_GRID| Grid distributed over                                   128 processors
 PW_GRID| Real space group dimensions                                     8   16
 PW_GRID| the grid is blocked:                                               YES
 PW_GRID| Cutoff [a.u.]                                                    300.0
 PW_GRID| spherical cutoff:                                                   NO
 PW_GRID|   Bounds   1            -54      53                Points:         108
 PW_GRID|   Bounds   2            -54      53                Points:         108
 PW_GRID|   Bounds   3           -150     149                Points:         300
 PW_GRID| Volume element (a.u.^3)  0.1896E-02     Volume (a.u.^3)      6635.2971
 PW_GRID| Grid span                                                    FULLSPACE
 PW_GRID|   Distribution                         Average         Max         Min
 PW_GRID|   G-Vectors                            27337.5       28728       25272
 PW_GRID|   G-Rays                                 253.1         266         234
 PW_GRID|   Real Space Points                    27337.5       28728       25272

 PW_GRID| Information for grid number                                          2
 PW_GRID| Number of the reference grid                                         1
 PW_GRID| Grid distributed over                                   128 processors
 PW_GRID| Real space group dimensions                                     8   16
 PW_GRID| the grid is blocked:                                                NO
 PW_GRID| Cutoff [a.u.]                                                    100.0
 PW_GRID| spherical cutoff:                                                   NO
 PW_GRID|   Bounds   1            -30      29                Points:          60
 PW_GRID|   Bounds   2            -30      29                Points:          60
 PW_GRID|   Bounds   3            -90      89                Points:         180
 PW_GRID| Volume element (a.u.^3)  0.1024E-01     Volume (a.u.^3)      6635.2971
 PW_GRID| Grid span                                                    FULLSPACE
 PW_GRID|   Distribution                         Average         Max         Min
 PW_GRID|   G-Vectors                             5062.5       15960           0
 PW_GRID|   G-Rays                                  84.4         266           0
 PW_GRID|   Real Space Points                     5062.5        5760        3780

 PW_GRID| Information for grid number                                          3
 PW_GRID| Number of the reference grid                                         1
 PW_GRID| Grid distributed over                                   128 processors
 PW_GRID| Real space group dimensions                                     8   16
 PW_GRID| the grid is blocked:                                                NO
 PW_GRID| Cutoff [a.u.]                                                     33.3
 PW_GRID| spherical cutoff:                                                   NO
 PW_GRID|   Bounds   1            -18      17                Points:          36
 PW_GRID|   Bounds   2            -18      17                Points:          36
 PW_GRID|   Bounds   3            -50      49                Points:         100
 PW_GRID| Volume element (a.u.^3)  0.5120E-01     Volume (a.u.^3)      6635.2971
 PW_GRID| Grid span                                                    FULLSPACE
 PW_GRID|   Distribution                         Average         Max         Min
 PW_GRID|   G-Vectors                             1012.5        9576           0
 PW_GRID|   G-Rays                                  28.1         266           0
 PW_GRID|   Real Space Points                     1012.5        1500         800

 PW_GRID| Information for grid number                                          4
 PW_GRID| Number of the reference grid                                         1
 PW_GRID| Grid distributed over                                   128 processors
 PW_GRID| Real space group dimensions                                     8   16
 PW_GRID| the grid is blocked:                                                NO
 PW_GRID| Cutoff [a.u.]                                                     11.1
 PW_GRID| spherical cutoff:                                                   NO
 PW_GRID|   Bounds   1            -10       9                Points:          20
 PW_GRID|   Bounds   2            -10       9                Points:          20
 PW_GRID|   Bounds   3            -30      29                Points:          60
 PW_GRID| Volume element (a.u.^3)  0.2765         Volume (a.u.^3)      6635.2971
 PW_GRID| Grid span                                                    FULLSPACE
 PW_GRID|   Distribution                         Average         Max         Min
 PW_GRID|   G-Vectors                              187.5        3800           0
 PW_GRID|   G-Rays                                   9.4         190           0
 PW_GRID|   Real Space Points                      187.5         360         120

 PW_GRID| Information for grid number                                          5
 PW_GRID| Number of the reference grid                                         1
 PW_GRID| Grid distributed over                                   128 processors
 PW_GRID| Real space group dimensions                                     8   16
 PW_GRID| the grid is blocked:                                                NO
 PW_GRID| Cutoff [a.u.]                                                      3.7
 PW_GRID| spherical cutoff:                                                   NO
 PW_GRID|   Bounds   1             -6       5                Points:          12
 PW_GRID|   Bounds   2             -6       5                Points:          12
 PW_GRID|   Bounds   3            -18      17                Points:          36
 PW_GRID| Volume element (a.u.^3)   1.280         Volume (a.u.^3)      6635.2971
 PW_GRID| Grid span                                                    FULLSPACE
 PW_GRID|   Distribution                         Average         Max         Min
 PW_GRID|   G-Vectors                               40.5        1296           0
 PW_GRID|   G-Rays                                   3.4         108           0
 PW_GRID|   Real Space Points                       40.5          72           0

 POISSON| Solver                                                        PERIODIC
 POISSON| Periodicity                                                        XYZ

 RS_GRID| Information for grid number                                          1
 RS_GRID|   Bounds   1            -54      53                Points:         108
 RS_GRID|   Bounds   2            -54      53                Points:         108
 RS_GRID|   Bounds   3           -150     149                Points:         300
 RS_GRID| Real space distribution over                                  8 groups
 RS_GRID| Real space distribution along direction                              2
 RS_GRID| Border size                                                         28
 RS_GRID| Real space distribution over                                 16 groups
 RS_GRID| Real space distribution along direction                              3
 RS_GRID| Border size                                                         28
 RS_GRID|   Distribution                         Average         Max         Min
 RS_GRID|   Planes                                  69.5          70          69
 RS_GRID|   Distribution                         Average         Max         Min
 RS_GRID|   Planes                                  74.8          75          74

 RS_GRID| Information for grid number                                          2
 RS_GRID|   Bounds   1            -30      29                Points:          60
 RS_GRID|   Bounds   2            -30      29                Points:          60
 RS_GRID|   Bounds   3            -90      89                Points:         180
 RS_GRID| Real space fully replicated
 RS_GRID| Group size                                                           1

 RS_GRID| Information for grid number                                          3
 RS_GRID|   Bounds   1            -18      17                Points:          36
 RS_GRID|   Bounds   2            -18      17                Points:          36
 RS_GRID|   Bounds   3            -50      49                Points:         100
 RS_GRID| Real space fully replicated
 RS_GRID| Group size                                                           1

 RS_GRID| Information for grid number                                          4
 RS_GRID|   Bounds   1            -10       9                Points:          20
 RS_GRID|   Bounds   2            -10       9                Points:          20
 RS_GRID|   Bounds   3            -30      29                Points:          60
 RS_GRID| Real space fully replicated
 RS_GRID| Group size                                                           1

 RS_GRID| Information for grid number                                          5
 RS_GRID|   Bounds   1             -6       5                Points:          12
 RS_GRID|   Bounds   2             -6       5                Points:          12
 RS_GRID|   Bounds   3            -18      17                Points:          36
 RS_GRID| Real space fully replicated
 RS_GRID| Group size                                                           1

 Spin 1

 Number of electrons:                                                        295.200
 Number of occupied orbitals:                                                296
 Number of molecular orbitals:                                               832

 Spin 2

 Number of electrons:                                                        280.800
 Number of occupied orbitals:                                                281
 Number of molecular orbitals:                                               832

 Number of orbital functions:                                                832
 Number of independent orbital functions:                                    832

 Extrapolation method: initial_guess

 Atomic guess: The first density matrix is obtained in terms of atomic orbitals
               and electronic configurations assigned to each atomic kind

 Guess for atomic kind: Ni_i

 Electronic structure
    Total number of core electrons                                         10.00
    Total number of valence electrons                                      18.00
    Total number of electrons                                              28.00
    Multiplicity                                                         doublet
    Alpha Electrons
    S   [  1.00  1.00] 1.00  1.00
    P   [  3.00] 3.00
    D      4.30
    Beta Electrons
    S   [  1.00  1.00] 1.00  1.00
    P   [  3.00] 3.00
    D      3.70


 *******************************************************************************
                  Iteration          Convergence                     Energy [au]
 *******************************************************************************
                          1         1.51708                    -167.066118163909
                          2         15.1863                    -156.630620063797
                          3         2.29518                    -168.318250074867
                          4        0.198051                    -168.608832938310
                          5        0.762142E-01                -168.611735578094
                          6        0.143308E-01                -168.612261389358
                          7        0.453828E-02                -168.612313512258
                          8        0.436836E-02                -168.612313369107
                          9        0.696306E-03                -168.612315351147
                         10        0.226261E-02                -168.612315025774
                         11        0.995757E-03                -168.612315268998
                         12        0.170432E-03                -168.612315393602
                         13        0.195344E-03                -168.612315392852
                         14        0.147467E-03                -168.612315396817
                         15        0.185080E-03                -168.612315392680
                         16        0.969041E-04                -168.612315398729
                         17        0.991109E-04                -168.612315398505
                         18        0.433236E-04                -168.612315399326
                         19        0.269198E-04                -168.612315399408
                         20        0.109432E-04                -168.612315399455
                         21        0.443439E-05                -168.612315399480
                         22        0.816741E-05                -168.612315399471
                         23        0.470984E-05                -168.612315399481
                         24        0.245833E-05                -168.612315399483
                         25        0.100766E-05                -168.612315399484
                         26        0.417991E-06                -168.612315399483

 Energy components [Hartree]           Total Energy ::         -168.612315399483
                                        Band Energy ::          -26.569179124340
                                     Kinetic Energy ::           97.305065650248
                                   Potential Energy ::         -265.917381049731
                                      Virial (-V/T) ::            2.732821557364
                                        Core Energy ::         -299.567011526383
                                          XC Energy ::          -16.225783039068
                                     Coulomb Energy ::          147.180479165968
                       Total Pseudopotential Energy ::         -396.958417944166
                       Local Pseudopotential Energy ::         -362.646534962999
                    Nonlocal Pseudopotential Energy ::          -34.311882981167
                                        Confinement ::            0.863407675347

 Orbital energies  State     Spin  L     Occupation   Energy[a.u.]    Energy[eV]

                       1    alpha  0          1.000      -4.170511   -113.485387
                       2    alpha  0          1.000      -0.181081     -4.927469
                       1     beta  0          1.000      -4.143060   -112.738394
                       2     beta  0          1.000      -0.176746     -4.809500

                       1    alpha  1          3.000      -2.576642    -70.114003
                       1     beta  1          3.000      -2.549934    -69.387228

                       1    alpha  2          4.300      -0.325251     -8.850518
                       1     beta  2          3.700      -0.302561     -8.233099


 Total Electron Density at R=0:                                         0.030426

 Guess for atomic kind: Ni_b

 Electronic structure
    Total number of core electrons                                         10.00
    Total number of valence electrons                                      18.00
    Total number of electrons                                              28.00
    Multiplicity                                                         singlet
    Alpha Electrons
    S   [  1.00  1.00] 1.00  1.00
    P   [  3.00] 3.00
    D      4.15
    Beta Electrons
    S   [  1.00  1.00] 1.00  1.00
    P   [  3.00] 3.00
    D      3.85


 *******************************************************************************
                  Iteration          Convergence                     Energy [au]
 *******************************************************************************
                          1         1.51644                    -167.063405016002
                          2         14.5708                    -156.605601568142
                          3         2.17615                    -168.315940476529
                          4        0.171083                    -168.606607503240
                          5        0.597643E-01                -168.609374059588
                          6        0.830111E-02                -168.609749350056
                          7        0.863734E-02                -168.609756441038
                          8        0.471213E-02                -168.609760412320
                          9        0.113554E-02                -168.609762605964
                         10        0.216452E-02                -168.609762370126
                         11        0.860489E-03                -168.609762690774
                         12        0.108436E-03                -168.609762764649
                         13        0.504231E-04                -168.609762765416
                         14        0.680279E-04                -168.609762765438
                         15        0.993911E-04                -168.609762764047
                         16        0.113151E-03                -168.609762764838
                         17        0.175613E-04                -168.609762765748
                         18        0.133048E-04                -168.609762765759
                         19        0.108258E-04                -168.609762765773
                         20        0.154001E-04                -168.609762765766
                         21        0.161325E-04                -168.609762765775
                         22        0.521836E-05                -168.609762765800
                         23        0.286562E-05                -168.609762765801
                         24        0.222908E-05                -168.609762765802
                         25        0.118017E-05                -168.609762765802
                         26        0.205267E-06                -168.609762765802

 Energy components [Hartree]           Total Energy ::         -168.609762765802
                                        Band Energy ::          -26.567953610463
                                     Kinetic Energy ::           97.301617708638
                                   Potential Energy ::         -265.911380474440
                                      Virial (-V/T) ::            2.732856726706
                                        Core Energy ::         -299.564997397253
                                          XC Energy ::          -16.222862078970
                                     Coulomb Energy ::          147.178096710421
                       Total Pseudopotential Energy ::         -396.952955489255
                       Local Pseudopotential Energy ::         -362.642879785572
                    Nonlocal Pseudopotential Energy ::          -34.310075703683
                                        Confinement ::            0.863403833644

 Orbital energies  State     Spin  L     Occupation   Energy[a.u.]    Energy[eV]

                       1    alpha  0          1.000      -4.163923   -113.306098
                       2    alpha  0          1.000      -0.180022     -4.898638
                       1     beta  0          1.000      -4.150197   -112.932601
                       2     beta  0          1.000      -0.177854     -4.839663

                       1    alpha  1          3.000      -2.570231    -69.939555
                       1     beta  1          3.000      -2.556877    -69.576169

                       1    alpha  2          4.150      -0.319789     -8.701900
                       1     beta  2          3.850      -0.308444     -8.393176


 Total Electron Density at R=0:                                         0.030434

 Spin 1
 Re-scaling the density matrix to get the right number of electrons for spin 1
                  # Electrons              Trace(P)               Scaling factor
                        295.200             295.200                        1.000

 Spin 2
 Re-scaling the density matrix to get the right number of electrons for spin 2
                  # Electrons              Trace(P)               Scaling factor
                        280.800             280.800                        1.000


 SCF WAVEFUNCTION OPTIMIZATION

  Step     Update method      Time    Convergence         Total energy    Change
  ------------------------------------------------------------------------------
     1 NoMix/Diag. 0.80E-01    1.9     0.87380899     -5426.4000907333 -5.43E+03
     2 Broy./Diag. 0.80E-01    1.5     0.01480854     -5315.4149032445  1.11E+02
     3 Broy./Diag. 0.80E-01    1.5     0.05046167     -5351.6263864669 -3.62E+01
     4 Broy./Diag. 0.80E-01    1.5     0.00462769     -5414.6054710270 -6.30E+01
     5 Broy./Diag. 0.80E-01    1.5     0.01618128     -5415.2530659914 -6.48E-01
     6 Broy./Diag. 0.80E-01    1.5     0.00589411     -5417.6435900237 -2.39E+00
     7 Broy./Diag. 0.80E-01    1.5     0.00433017     -5416.7029956609  9.41E-01
     8 Broy./Diag. 0.80E-01    1.5     0.00890181     -5417.0602553546 -3.57E-01
     9 Broy./Diag. 0.80E-01    1.5     0.00143243     -5417.0970493111 -3.68E-02
    10 Broy./Diag. 0.80E-01    1.5     0.01248055     -5417.3777805706 -2.81E-01
    11 Broy./Diag. 0.80E-01    1.5     0.00069599     -5416.9997903482  3.78E-01
    12 Broy./Diag. 0.80E-01    1.5     0.00490148     -5417.2198385321 -2.20E-01
    13 Broy./Diag. 0.80E-01    1.5     0.00905319     -5417.1535902176  6.62E-02
    14 Broy./Diag. 0.80E-01    1.5     0.00824248     -5417.7670826744 -6.13E-01
    15 Broy./Diag. 0.80E-01    1.5     0.00599877     -5417.7288938759  3.82E-02
[...]
   118 Broy./Diag. 0.80E-01    1.5     0.00280122     -5417.5618765259  5.57E-02
   119 Broy./Diag. 0.80E-01    1.5     0.01323144     -5417.5159204043  4.60E-02
   120 Broy./Diag. 0.80E-01    1.5     0.01008710     -5417.3756077360  1.40E-01
   121 Broy./Diag. 0.80E-01    1.5     0.01123757     -5417.4387348964 -6.31E-02
   122 Broy./Diag. 0.80E-01    1.5     0.01221339     -5417.5788918807 -1.40E-01
   123 Broy./Diag. 0.80E-01    1.5     0.00546542     -5417.6192012781 -4.03E-02
   124 Broy./Diag. 0.80E-01    1.5     0.00536402     -5417.6614664949 -4.23E-02
   125 Broy./Diag. 0.80E-01    1.5     0.04014061     -5417.7407557783 -7.93E-02
   126 Broy./Diag. 0.80E-01    1.5     0.04365476     -5417.6366842183  1.04E-01
   127 Broy./Diag. 0.80E-01    1.5     0.00100801     -5417.7040572054 -6.74E-02
   128 Broy./Diag. 0.80E-01    1.5     0.03635020     -5417.7206532325 -1.66E-02
   129 Broy./Diag. 0.80E-01    1.5     0.02484465     -5417.6979290812  2.27E-02
   130 Broy./Diag. 0.80E-01    1.5     0.02578068     -5417.7527065824 -5.48E-02
   131 Broy./Diag. 0.80E-01    1.5     0.02397349     -5417.9056006887 -1.53E-01
   132 Broy./Diag. 0.80E-01    1.5     0.00530207     -5417.6047943133  3.01E-01
   133 Broy./Diag. 0.80E-01    1.5     0.01079326     -5417.6707205138 -6.59E-02
   134 Broy./Diag. 0.80E-01    1.5     0.00456455     -5417.7925434133 -1.22E-01
   135 Broy./Diag. 0.80E-01    1.5     0.01692285     -5417.8212921843 -2.87E-02
   136 Broy./Diag. 0.80E-01    1.5     0.03792844     -5417.9181178880 -9.68E-02
   137 Broy./Diag. 0.80E-01    1.5     0.01138890     -5417.7605344515  1.58E-01
   138 Broy./Diag. 0.80E-01    1.5     0.01290186     -5417.7007035688  5.98E-02
   139 Broy./Diag. 0.80E-01    1.5     0.01475937     -5417.7634112727 -6.27E-02
   140 Broy./Diag. 0.80E-01    1.5     0.00227369     -5417.5358626352  2.28E-01
   141 Broy./Diag. 0.80E-01    1.5     0.00235839     -5417.6010405609 -6.52E-02
   142 Broy./Diag. 0.80E-01    1.5     0.00273443     -5417.5226354892  7.84E-02
   143 Broy./Diag. 0.80E-01    1.5     0.00924299     -5417.5344981121 -1.19E-02
   144 Broy./Diag. 0.80E-01    1.5     0.01110256     -5417.5169730899  1.75E-02
   145 Broy./Diag. 0.80E-01    1.5     0.00773676     -5417.4400792115  7.69E-02
   146 Broy./Diag. 0.80E-01    1.5     0.01441513     -5417.4093758036  3.07E-02
   147 Broy./Diag. 0.80E-01    1.5     0.01920155     -5417.4559101819 -4.65E-02
   148 Broy./Diag. 0.80E-01    1.5     0.00381209     -5417.3901552615  6.58E-02
   149 Broy./Diag. 0.80E-01    1.5     0.00642766     -5417.3350685798  5.51E-02
   150 Broy./Diag. 0.80E-01    1.5     0.00738737     -5417.3293714405  5.70E-03
   151 Broy./Diag. 0.80E-01    1.5     0.00405599     -5417.4920257141 -1.63E-01
   152 Broy./Diag. 0.80E-01    1.5     0.00536080     -5417.5529907016 -6.10E-02
   153 Broy./Diag. 0.80E-01    1.5     0.00687806     -5417.6476026027 -9.46E-02
   154 Broy./Diag. 0.80E-01    1.5     0.01154043     -5417.7191752105 -7.16E-02
   155 Broy./Diag. 0.80E-01    1.5     0.00950896     -5417.5496749575  1.70E-01
   156 Broy./Diag. 0.80E-01    1.5     0.00243895     -5417.4710316516  7.86E-02
   157 Broy./Diag. 0.80E-01    1.5     0.00722226     -5417.4785458203 -7.51E-03
   158 Broy./Diag. 0.80E-01    1.5     0.00180710     -5417.4763172613  2.23E-03
   159 Broy./Diag. 0.80E-01    1.5     0.01506220     -5417.4756050052  7.12E-04
   160 Broy./Diag. 0.80E-01    1.5     0.00803965     -5417.4408089430  3.48E-02
   161 Broy./Diag. 0.80E-01    1.5     0.00675781     -5417.5820673868 -1.41E-01
   162 Broy./Diag. 0.80E-01    1.5     0.02155760     -5417.6304423289 -4.84E-02
   163 Broy./Diag. 0.80E-01    1.5     0.01720697     -5417.7566817544 -1.26E-01
   164 Broy./Diag. 0.80E-01    1.5     0.00151120     -5417.6681601589  8.85E-02
   165 Broy./Diag. 0.80E-01    1.5     0.02335180     -5417.6772829526 -9.12E-03
   166 Broy./Diag. 0.80E-01    1.5     0.03774437     -5417.7099842411 -3.27E-02
   167 Broy./Diag. 0.80E-01    1.5     0.00912310     -5417.7385790795 -2.86E-02
   168 Broy./Diag. 0.80E-01    1.5     0.00259159     -5417.9377714104 -1.99E-01
   169 Broy./Diag. 0.80E-01    1.5     0.01578793     -5417.9938836653 -5.61E-02
   170 Broy./Diag. 0.80E-01    1.5     0.00298908     -5418.0033212381 -9.44E-03
   171 Broy./Diag. 0.80E-01    1.5     0.00226694     -5417.9063736385  9.69E-02
   172 Broy./Diag. 0.80E-01    1.5     0.00729615     -5417.8717385483  3.46E-02
   173 Broy./Diag. 0.80E-01    1.5     0.00921108     -5417.8009257439  7.08E-02
   174 Broy./Diag. 0.80E-01    1.5     0.00381116     -5417.7664290541  3.45E-02
   175 Broy./Diag. 0.80E-01    1.5     0.01123616     -5417.7856925641 -1.93E-02
   176 Broy./Diag. 0.80E-01    1.5     0.00321132     -5417.8672916803 -8.16E-02
   177 Broy./Diag. 0.80E-01    1.5     0.02157070     -5417.8975394045 -3.02E-02
   178 Broy./Diag. 0.80E-01    1.5     0.00564209     -5417.7555789231  1.42E-01
   179 Broy./Diag. 0.80E-01    1.5     0.03166951     -5417.8421402475 -8.66E-02
   180 Broy./Diag. 0.80E-01    1.5     0.00909637     -5417.6716761697  1.70E-01
   181 Broy./Diag. 0.80E-01    1.5     0.02876175     -5417.7404697778 -6.88E-02
   182 Broy./Diag. 0.80E-01    1.5     0.03904630     -5417.5474868671  1.93E-01
   183 Broy./Diag. 0.80E-01    1.5     0.01995615     -5417.1481004007  3.99E-01
   184 Broy./Diag. 0.80E-01    1.5     0.02717112     -5417.4203919960 -2.72E-01
   185 Broy./Diag. 0.80E-01    1.5     0.01772532     -5417.0833725484  3.37E-01
   186 Broy./Diag. 0.80E-01    1.5     0.02259846     -5417.1972601205 -1.14E-01
   187 Broy./Diag. 0.80E-01    1.5     0.01060304     -5417.3111256694 -1.14E-01
   188 Broy./Diag. 0.80E-01    1.5     0.02451627     -5417.3756747401 -6.45E-02
   189 Broy./Diag. 0.80E-01    1.5     0.01347172     -5416.9773776479  3.98E-01
   190 Broy./Diag. 0.80E-01    1.5     0.01109202     -5417.1995300771 -2.22E-01
   191 Broy./Diag. 0.80E-01    1.5     0.00929500     -5416.9807092381  2.19E-01
   192 Broy./Diag. 0.80E-01    1.5     0.02251538     -5416.9841534907 -3.44E-03
   193 Broy./Diag. 0.80E-01    1.5     0.02053290     -5417.3525316287 -3.68E-01
   194 Broy./Diag. 0.80E-01    1.5     0.01008970     -5417.5935810424 -2.41E-01
   195 Broy./Diag. 0.80E-01    1.5     0.01442495     -5417.6904666424 -9.69E-02
   196 Broy./Diag. 0.80E-01    1.5     0.01415520     -5417.8507351025 -1.60E-01
   197 Broy./Diag. 0.80E-01    1.5     0.01163447     -5417.7213271896  1.29E-01
   198 Broy./Diag. 0.80E-01    1.5     0.02449949     -5417.6602709345  6.11E-02
   199 Broy./Diag. 0.80E-01    1.5     0.00694549     -5417.2441506993  4.16E-01
   200 Broy./Diag. 0.80E-01    1.5     0.04027073     -5417.3257165802 -8.16E-02
   201 Broy./Diag. 0.80E-01    1.5     0.00412893     -5416.6091650900  7.17E-01
   202 Broy./Diag. 0.80E-01    1.5     0.00637492     -5416.5449567450  6.42E-02
   203 Broy./Diag. 0.80E-01    1.5     0.00653832     -5416.5636322835 -1.87E-02
   204 Broy./Diag. 0.80E-01    1.5     0.00451087     -5416.5819600188 -1.83E-02
   205 Broy./Diag. 0.80E-01    1.5     0.01785878     -5416.6085843601 -2.66E-02
   206 Broy./Diag. 0.80E-01    1.5     0.02296277     -5416.2013998802  4.07E-01
   207 Broy./Diag. 0.80E-01    1.5     0.00566364     -5415.7604034338  4.41E-01
   208 Broy./Diag. 0.80E-01    1.5     0.03089956     -5416.2088587408 -4.48E-01
   209 Broy./Diag. 0.80E-01    1.5     0.01856001     -5415.7952943506  4.14E-01
   210 Broy./Diag. 0.80E-01    1.5     0.00645511     -5416.1614963148 -3.66E-01
   211 Broy./Diag. 0.80E-01    1.5     0.00710862     -5416.0622142207  9.93E-02
   212 Broy./Diag. 0.80E-01    1.5     0.00485697     -5415.9197695964  1.42E-01
   213 Broy./Diag. 0.80E-01    1.5     0.01656620     -5415.8938832741  2.59E-02
   214 Broy./Diag. 0.80E-01    1.5     0.01612722     -5416.0554557285 -1.62E-01
   215 Broy./Diag. 0.80E-01    1.5     0.00639384     -5416.4107504966 -3.55E-01
   216 Broy./Diag. 0.80E-01    1.5     0.01867375     -5416.4166924304 -5.94E-03
   217 Broy./Diag. 0.80E-01    1.5     0.00380558     -5416.5882385038 -1.72E-01
   218 Broy./Diag. 0.80E-01    1.5     0.00832844     -5416.4737084016  1.15E-01
   219 Broy./Diag. 0.80E-01    1.5     0.00858071     -5416.2254249980  2.48E-01
   220 Broy./Diag. 0.80E-01    1.5     0.02677572     -5416.3296971856 -1.04E-01
   221 Broy./Diag. 0.80E-01    1.5     0.01377711     -5416.0595517940  2.70E-01
   222 Broy./Diag. 0.80E-01    1.5     0.01253555     -5416.5487620621 -4.89E-01
   223 Broy./Diag. 0.80E-01    1.5     0.01470315     -5416.8434116772 -2.95E-01
   224 Broy./Diag. 0.80E-01    1.5     0.01505062     -5417.1036261370 -2.60E-01
   225 Broy./Diag. 0.80E-01    1.5     0.00751977     -5416.9677316307  1.36E-01
   226 Broy./Diag. 0.80E-01    1.5     0.00512110     -5416.9794135498 -1.17E-02
   227 Broy./Diag. 0.80E-01    1.5     0.02740801     -5417.1009127535 -1.21E-01
   228 Broy./Diag. 0.80E-01    1.5     0.01103013     -5417.4137421227 -3.13E-01
   229 Broy./Diag. 0.80E-01    1.5     0.00188179     -5417.4626117508 -4.89E-02
   230 Broy./Diag. 0.80E-01    1.5     0.01454460     -5417.5417581123 -7.91E-02
   231 Broy./Diag. 0.80E-01    1.5     0.01747936     -5417.8330537257 -2.91E-01
   232 Broy./Diag. 0.80E-01    1.5     0.02061299     -5417.5307761828  3.02E-01
   233 Broy./Diag. 0.80E-01    1.5     0.00715699     -5417.2134900539  3.17E-01
   234 Broy./Diag. 0.80E-01    1.5     0.01180592     -5417.0729948104  1.40E-01
   235 Broy./Diag. 0.80E-01    1.5     0.05672912     -5417.0971441581 -2.41E-02
   236 Broy./Diag. 0.80E-01    1.5     0.00771571     -5416.4421978986  6.55E-01
   237 Broy./Diag. 0.80E-01    1.5     0.02149133     -5416.4935087800 -5.13E-02
   238 Broy./Diag. 0.80E-01    1.5     0.06028468     -5416.7370078463 -2.43E-01
   239 Broy./Diag. 0.80E-01    1.5     0.01854895     -5416.0846870918  6.52E-01
   240 Broy./Diag. 0.80E-01    1.5     0.02224393     -5415.9177662897  1.67E-01
   241 Broy./Diag. 0.80E-01    1.5     0.00754215     -5416.3614255584 -4.44E-01
   242 Broy./Diag. 0.80E-01    1.5     0.00405035     -5416.6649771361 -3.04E-01
   243 Broy./Diag. 0.80E-01    1.5     0.00573926     -5416.5858020920  7.92E-02
   244 Broy./Diag. 0.80E-01    1.5     0.04814487     -5416.7330440842 -1.47E-01
   245 Broy./Diag. 0.80E-01    1.5     0.01923282     -5417.4005512971 -6.68E-01
   246 Broy./Diag. 0.80E-01    1.5     0.01746281     -5417.3530273002  4.75E-02
   247 Broy./Diag. 0.80E-01    1.5     0.01046717     -5417.2651367736  8.79E-02
   248 Broy./Diag. 0.80E-01    1.5     0.01637527     -5417.1411158085  1.24E-01
   249 Broy./Diag. 0.80E-01    1.5     0.01240768     -5416.9379780071  2.03E-01
   250 Broy./Diag. 0.80E-01    1.5     0.00396787     -5416.5254073079  4.13E-01
   251 Broy./Diag. 0.80E-01    1.5     0.07764002     -5416.5112186718  1.42E-02
   252 Broy./Diag. 0.80E-01    1.5     0.07636548     -5416.1141294811  3.97E-01
   253 Broy./Diag. 0.80E-01    1.5     0.02198420     -5417.0340265555 -9.20E-01
   254 Broy./Diag. 0.80E-01    1.5     0.09841138     -5416.8664021816  1.68E-01
   255 Broy./Diag. 0.80E-01    1.5     0.02082472     -5417.7380603185 -8.72E-01
   256 Broy./Diag. 0.80E-01    1.5     0.01361450     -5417.4256436425  3.12E-01
   257 Broy./Diag. 0.80E-01    1.5     0.03370670     -5417.3820056517  4.36E-02
   258 Broy./Diag. 0.80E-01    1.5     0.02170826     -5416.7569599004  6.25E-01
   259 Broy./Diag. 0.80E-01    1.5     0.00600194     -5417.1597205529 -4.03E-01
   260 Broy./Diag. 0.80E-01    1.5     0.00949487     -5417.1558090321  3.91E-03
   261 Broy./Diag. 0.80E-01    1.5     0.02534498     -5416.9872088199  1.69E-01
   262 Broy./Diag. 0.80E-01    1.5     0.01506619     -5416.5441228513  4.43E-01
   263 Broy./Diag. 0.80E-01    1.5     0.01452693     -5416.4337845528  1.10E-01
   264 Broy./Diag. 0.80E-01    1.5     0.04108688     -5416.4091977976  2.46E-02
   265 Broy./Diag. 0.80E-01    1.5     0.01906588     -5415.9976207259  4.12E-01
   266 Broy./Diag. 0.80E-01    1.5     0.03604539     -5415.7063450117  2.91E-01
   267 Broy./Diag. 0.80E-01    1.5     0.01329493     -5416.0474084452 -3.41E-01
   268 Broy./Diag. 0.80E-01    1.5     0.05872676     -5416.4205918732 -3.73E-01
   269 Broy./Diag. 0.80E-01    1.5     0.03647135     -5415.9937244265  4.27E-01
   270 Broy./Diag. 0.80E-01    1.5     0.01828189     -5415.3765684453  6.17E-01
   271 Broy./Diag. 0.80E-01    1.5     0.00405609     -5415.0855574572  2.91E-01
   272 Broy./Diag. 0.80E-01    1.5     0.01549829     -5415.4576358655 -3.72E-01
   273 Broy./Diag. 0.80E-01    1.5     0.02738168     -5415.8834178105 -4.26E-01
   274 Broy./Diag. 0.80E-01    1.5     0.00636165     -5415.2089265507  6.74E-01
   275 Broy./Diag. 0.80E-01    1.5     0.01561483     -5415.3738197899 -1.65E-01
   276 Broy./Diag. 0.80E-01    1.5     0.04308054     -5415.4264256097 -5.26E-02
   277 Broy./Diag. 0.80E-01    1.5     0.01017640     -5415.9700134482 -5.44E-01
   278 Broy./Diag. 0.80E-01    1.5     0.00979300     -5415.8679852146  1.02E-01
   279 Broy./Diag. 0.80E-01    1.5     0.04098834     -5415.8407031108  2.73E-02
   280 Broy./Diag. 0.80E-01    1.5     0.02345148     -5415.8966453841 -5.59E-02
   281 Broy./Diag. 0.80E-01    1.5     0.01093138     -5416.0662528911 -1.70E-01
   282 Broy./Diag. 0.80E-01    1.5     0.00973825     -5416.0945422924 -2.83E-02
   283 Broy./Diag. 0.80E-01    1.5     0.01548673     -5416.3194285980 -2.25E-01
   284 Broy./Diag. 0.80E-01    1.5     0.01179239     -5416.6753281534 -3.56E-01
   285 Broy./Diag. 0.80E-01    1.5     0.02204039     -5416.6987160665 -2.34E-02
   286 Broy./Diag. 0.80E-01    1.5     0.03309174     -5416.3962591670  3.02E-01
   287 Broy./Diag. 0.80E-01    1.5     0.04848094     -5417.0531186427 -6.57E-01
   288 Broy./Diag. 0.80E-01    1.5     0.03380691     -5416.7135090309  3.40E-01
   289 Broy./Diag. 0.80E-01    1.5     0.01152603     -5416.7978060554 -8.43E-02
   290 Broy./Diag. 0.80E-01    1.5     0.02968780     -5416.9066638024 -1.09E-01
   291 Broy./Diag. 0.80E-01    1.5     0.01839562     -5417.4175482537 -5.11E-01
   292 Broy./Diag. 0.80E-01    1.5     0.09153378     -5417.9644338961 -5.47E-01
   293 Broy./Diag. 0.80E-01    1.5     0.05798747     -5417.1994949437  7.65E-01
   294 Broy./Diag. 0.80E-01    1.5     0.03094585     -5417.8861685051 -6.87E-01
   295 Broy./Diag. 0.80E-01    1.5     0.00834628     -5417.5840104598  3.02E-01
   296 Broy./Diag. 0.80E-01    1.5     0.03196638     -5417.4987407339  8.53E-02
   297 Broy./Diag. 0.80E-01    1.5     0.00581413     -5417.0956759755  4.03E-01
   298 Broy./Diag. 0.80E-01    1.5     0.09888832     -5417.3163984827 -2.21E-01
   299 Broy./Diag. 0.80E-01    1.5     0.01046880     -5416.3209911002  9.95E-01
   300 Broy./Diag. 0.80E-01    1.5     0.00374829     -5416.0492312916  2.72E-01
   301 Broy./Diag. 0.80E-01    1.5     0.01592417     -5416.0681143121 -1.89E-02
   302 Broy./Diag. 0.80E-01    1.5     0.03861065     -5416.3359391528 -2.68E-01
   303 Broy./Diag. 0.80E-01    1.5     0.02058400     -5416.5070417277 -1.71E-01
   304 Broy./Diag. 0.80E-01    1.5     0.06993918     -5416.0883366091  4.19E-01
   305 Broy./Diag. 0.80E-01    1.5     0.04156051     -5415.3434319270  7.45E-01
   306 Broy./Diag. 0.80E-01    1.5     0.01756914     -5416.5699770772 -1.23E+00
   307 Broy./Diag. 0.80E-01    1.5     0.05569214     -5416.7299301474 -1.60E-01
   308 Broy./Diag. 0.80E-01    1.5     0.03821735     -5417.1953905003 -4.65E-01
   309 Broy./Diag. 0.80E-01    1.5     0.00216110     -5417.1074672415  8.79E-02
   310 Broy./Diag. 0.80E-01    1.5     0.04086534     -5417.1896387010 -8.22E-02
   311 Broy./Diag. 0.80E-01    1.5     0.02177984     -5416.0403412793  1.15E+00
   312 Broy./Diag. 0.80E-01    1.5     0.01321384     -5416.1951909392 -1.55E-01
   313 Broy./Diag. 0.80E-01    1.5     0.02269462     -5416.1867439732  8.45E-03
   314 Broy./Diag. 0.80E-01    1.5     0.01710738     -5416.7048632164 -5.18E-01
   315 Broy./Diag. 0.80E-01    1.5     0.00520596     -5416.8346192339 -1.30E-01
   316 Broy./Diag. 0.80E-01    1.5     0.04788044     -5416.6192773717  2.15E-01
   317 Broy./Diag. 0.80E-01    1.5     0.01329612     -5417.5355002781 -9.16E-01
   318 Broy./Diag. 0.80E-01    1.5     0.00680065     -5417.5329289398  2.57E-03
   319 Broy./Diag. 0.80E-01    1.5     0.01060231     -5417.4892869681  4.36E-02
   320 Broy./Diag. 0.80E-01    1.5     0.01025602     -5417.7190999042 -2.30E-01
   321 Broy./Diag. 0.80E-01    1.5     0.06672329     -5417.9198355459 -2.01E-01
   322 Broy./Diag. 0.80E-01    1.5     0.03845566     -5417.2753256254  6.45E-01
   323 Broy./Diag. 0.80E-01    1.5     0.00541030     -5417.9594252917 -6.84E-01
   324 Broy./Diag. 0.80E-01    1.5     0.01921352     -5417.8761102725  8.33E-02
   325 Broy./Diag. 0.80E-01    1.5     0.02637292     -5417.5936119837  2.82E-01
   326 Broy./Diag. 0.80E-01    1.5     0.02848744     -5417.5270134861  6.66E-02
   327 Broy./Diag. 0.80E-01    1.5     0.02856038     -5416.8222717581  7.05E-01
   328 Broy./Diag. 0.80E-01    1.5     0.03348301     -5417.6687322734 -8.46E-01
   329 Broy./Diag. 0.80E-01    1.5     0.02531988     -5417.5855849752  8.31E-02
   330 Broy./Diag. 0.80E-01    1.5     0.01050907     -5417.6722799859 -8.67E-02
   331 Broy./Diag. 0.80E-01    1.5     0.14962409     -5417.8851640288 -2.13E-01
   332 Broy./Diag. 0.80E-01    1.5     0.05862948     -5417.1820241903  7.03E-01
   333 Broy./Diag. 0.80E-01    1.5     0.06066901     -5416.7509936885  4.31E-01
   334 Broy./Diag. 0.80E-01    1.5     0.05920453     -5417.8536522037 -1.10E+00
   335 Broy./Diag. 0.80E-01    1.5     0.04140196     -5417.2833552051  5.70E-01
   336 Broy./Diag. 0.80E-01    1.5     0.07660483     -5417.0016701569  2.82E-01
   337 Broy./Diag. 0.80E-01    1.5     0.08598626     -5417.5702170934 -5.69E-01
   338 Broy./Diag. 0.80E-01    1.5     0.06074521     -5417.8648818844 -2.95E-01
   339 Broy./Diag. 0.80E-01    1.5     0.02088718     -5417.4911845401  3.74E-01
   340 Broy./Diag. 0.80E-01    1.5     0.08054609     -5417.0715338153  4.20E-01
   341 Broy./Diag. 0.80E-01    1.5     0.01816696     -5416.3639831847  7.08E-01
   342 Broy./Diag. 0.80E-01    1.5     0.07451504     -5416.2856747451  7.83E-02
   343 Broy./Diag. 0.80E-01    1.5     0.02348917     -5416.3823671913 -9.67E-02
   344 Broy./Diag. 0.80E-01    1.5     0.09777260     -5416.6611769104 -2.79E-01
   345 Broy./Diag. 0.80E-01    1.5     0.02878119     -5417.4430724684 -7.82E-01
   346 Broy./Diag. 0.80E-01    1.5     0.01746155     -5417.5850976546 -1.42E-01
   347 Broy./Diag. 0.80E-01    1.5     0.01063887     -5417.5861455889 -1.05E-03
   348 Broy./Diag. 0.80E-01    1.5     0.06487601     -5417.5606654053  2.55E-02
   349 Broy./Diag. 0.80E-01    1.5     0.10152801     -5417.9632902343 -4.03E-01
   350 Broy./Diag. 0.80E-01    1.5     0.01304664     -5417.3361685825  6.27E-01
   351 Broy./Diag. 0.80E-01    1.5     0.02860506     -5417.5553512906 -2.19E-01
   352 Broy./Diag. 0.80E-01    1.5     0.02110123     -5417.8376008133 -2.82E-01
   353 Broy./Diag. 0.80E-01    1.5     0.06275515     -5417.9713304163 -1.34E-01
   354 Broy./Diag. 0.80E-01    1.5     0.09487533     -5417.8672974179  1.04E-01
   355 Broy./Diag. 0.80E-01    1.5     0.08760301     -5418.3907944295 -5.23E-01
   356 Broy./Diag. 0.80E-01    1.5     0.01614940     -5417.9588860077  4.32E-01
   357 Broy./Diag. 0.80E-01    1.5     0.03019503     -5417.8520220738  1.07E-01
   358 Broy./Diag. 0.80E-01    1.5     0.04449219     -5417.8492925192  2.73E-03
   359 Broy./Diag. 0.80E-01    1.5     0.03440213     -5417.4602846475  3.89E-01
   360 Broy./Diag. 0.80E-01    1.5     0.05010632     -5416.3622486479  1.10E+00
   361 Broy./Diag. 0.80E-01    1.5     0.04536802     -5415.7617016686  6.01E-01
   362 Broy./Diag. 0.80E-01    1.5     0.05953652     -5416.1349413444 -3.73E-01
   363 Broy./Diag. 0.80E-01    1.5     0.02743755     -5416.7042778028 -5.69E-01
